MODEL 1
REMARK VINA RESULT:    -7.947      0.000      0.000
REMARK INTER + INTRA:          -9.368
REMARK INTER:                  -8.876
REMARK INTRA:                  -0.492
REMARK UNBOUND:                -0.492
REMARK  2 active torsions:
REMARK  status: ('A' for Active; 'I' for Inactive)
REMARK    1  A    between atoms: C_5  and  N_3 
REMARK    2  A    between atoms: C_4  and  C_9 
ROOT
ATOM      1  C   UNL d   1      46.983  53.605  54.698  0.00  0.00     0.046 C 
ATOM      2  C   UNL d   1      47.276  51.382  55.760  0.00  0.00     0.204 C 
ATOM      3  C   UNL d   1      47.600  52.884  55.918  0.00  0.00     0.043 C 
ATOM      4  C   UNL d   1      47.096  52.533  53.647  0.00  0.00    -0.021 A 
ATOM      5  C   UNL d   1      47.249  51.272  54.251  0.00  0.00     0.002 A 
ATOM      6  C   UNL d   1      46.985  52.653  52.268  0.00  0.00    -0.004 A 
ATOM      7  C   UNL d   1      47.315  50.119  53.481  0.00  0.00    -0.003 A 
ATOM      8  C   UNL d   1      47.057  51.498  51.489  0.00  0.00    -0.000 A 
ATOM      9  C   UNL d   1      47.221  50.241  52.089  0.00  0.00    -0.000 A 
ENDROOT
BRANCH   1  10
ATOM     10  C   UNL d   1      47.665  54.924  54.395  0.00  0.00    -0.018 A 
ATOM     11  C   UNL d   1      49.002  54.986  53.965  0.00  0.00     0.008 A 
ATOM     12  C   UNL d   1      49.628  56.217  53.736  0.00  0.00     0.068 A 
ATOM     13 CL   UNL d   1      51.282  56.198  53.239  0.00  0.00    -0.082 Cl
ATOM     14  C   UNL d   1      48.915  57.406  53.923  0.00  0.00     0.068 A 
ATOM     15 CL   UNL d   1      49.621  58.961  53.668  0.00  0.00    -0.082 Cl
ATOM     16  C   UNL d   1      47.581  57.355  54.333  0.00  0.00     0.012 A 
ATOM     17  C   UNL d   1      46.962  56.124  54.568  0.00  0.00    -0.003 A 
ENDBRANCH   1  10
BRANCH   2  18
ATOM     18  N   UNL d   1      45.984  50.988  56.324  0.00  0.00    -0.041 N 
ATOM     19  C   UNL d   1      45.804  51.446  57.695  0.00  0.00     0.242 C 
ATOM     20  H   UNL d   1      45.242  51.386  55.747  0.00  0.00     0.279 HD
ATOM     21  H   UNL d   1      45.950  49.968  56.333  0.00  0.00     0.279 HD
ENDBRANCH   2  18
TORSDOF 2

ENDMDL
MODEL 2
REMARK VINA RESULT:    -7.453      6.464      9.113
REMARK INTER + INTRA:          -8.817
REMARK INTER:                  -8.247
REMARK INTRA:                  -0.570
REMARK UNBOUND:                -0.492
REMARK  2 active torsions:
REMARK  status: ('A' for Active; 'I' for Inactive)
REMARK    1  A    between atoms: C_5  and  N_3 
REMARK    2  A    between atoms: C_4  and  C_9 
ROOT
ATOM      1  C   UNL d   1      49.193  46.145  49.825  0.00  0.00     0.046 C 
ATOM      2  C   UNL d   1      50.477  44.386  48.635  0.00  0.00     0.204 C 
ATOM      3  C   UNL d   1      50.516  45.865  49.077  0.00  0.00     0.043 C 
ATOM      4  C   UNL d   1      48.258  45.210  49.105  0.00  0.00    -0.021 A 
ATOM      5  C   UNL d   1      48.986  44.206  48.443  0.00  0.00     0.002 A 
ATOM      6  C   UNL d   1      46.869  45.196  49.109  0.00  0.00    -0.004 A 
ATOM      7  C   UNL d   1      48.335  43.190  47.757  0.00  0.00    -0.003 A 
ATOM      8  C   UNL d   1      46.209  44.181  48.416  0.00  0.00    -0.000 A 
ATOM      9  C   UNL d   1      46.934  43.186  47.745  0.00  0.00    -0.000 A 
ENDROOT
BRANCH   1  10
ATOM     10  C   UNL d   1      48.819  47.614  49.817  0.00  0.00    -0.018 A 
ATOM     11  C   UNL d   1      49.141  48.455  48.737  0.00  0.00     0.008 A 
ATOM     12  C   UNL d   1      48.828  49.819  48.770  0.00  0.00     0.068 A 
ATOM     13 CL   UNL d   1      49.289  50.784  47.413  0.00  0.00    -0.082 Cl
ATOM     14  C   UNL d   1      48.174  50.357  49.883  0.00  0.00     0.068 A 
ATOM     15 CL   UNL d   1      47.762  52.030  50.000  0.00  0.00    -0.082 Cl
ATOM     16  C   UNL d   1      47.834  49.526  50.954  0.00  0.00     0.012 A 
ATOM     17  C   UNL d   1      48.155  48.166  50.920  0.00  0.00    -0.003 A 
ENDBRANCH   1  10
BRANCH   2  18
ATOM     18  N   UNL d   1      50.978  43.450  49.642  0.00  0.00    -0.041 N 
ATOM     19  C   UNL d   1      52.114  43.977  50.387  0.00  0.00     0.242 C 
ATOM     20  H   UNL d   1      50.225  43.242  50.298  0.00  0.00     0.279 HD
ATOM     21  H   UNL d   1      51.294  42.611  49.153  0.00  0.00     0.279 HD
ENDBRANCH   2  18
TORSDOF 2

ENDMDL
MODEL 3
REMARK VINA RESULT:    -7.395      3.458      5.491
REMARK INTER + INTRA:          -8.752
REMARK INTER:                  -8.421
REMARK INTRA:                  -0.331
REMARK UNBOUND:                -0.492
REMARK  2 active torsions:
REMARK  status: ('A' for Active; 'I' for Inactive)
REMARK    1  A    between atoms: C_5  and  N_3 
REMARK    2  A    between atoms: C_4  and  C_9 
ROOT
ATOM      1  C   UNL d   1      47.273  53.663  52.500  0.00  0.00     0.046 C 
ATOM      2  C   UNL d   1      48.032  54.971  54.468  0.00  0.00     0.204 C 
ATOM      3  C   UNL d   1      48.289  54.731  52.964  0.00  0.00     0.043 C 
ATOM      4  C   UNL d   1      47.121  52.852  53.760  0.00  0.00    -0.021 A 
ATOM      5  C   UNL d   1      47.539  53.599  54.875  0.00  0.00     0.002 A 
ATOM      6  C   UNL d   1      46.573  51.585  53.916  0.00  0.00    -0.004 A 
ATOM      7  C   UNL d   1      47.435  53.080  56.158  0.00  0.00    -0.003 A 
ATOM      8  C   UNL d   1      46.473  51.055  55.203  0.00  0.00    -0.000 A 
ATOM      9  C   UNL d   1      46.900  51.795  56.315  0.00  0.00    -0.000 A 
ENDROOT
BRANCH   1  10
ATOM     10  C   UNL d   1      47.737  52.915  51.267  0.00  0.00    -0.018 A 
ATOM     11  C   UNL d   1      46.939  51.936  50.648  0.00  0.00     0.008 A 
ATOM     12  C   UNL d   1      47.405  51.224  49.537  0.00  0.00     0.068 A 
ATOM     13 CL   UNL d   1      46.368  50.018  48.862  0.00  0.00    -0.082 Cl
ATOM     14  C   UNL d   1      48.677  51.493  49.021  0.00  0.00     0.068 A 
ATOM     15 CL   UNL d   1      49.324  50.651  47.659  0.00  0.00    -0.082 Cl
ATOM     16  C   UNL d   1      49.471  52.476  49.618  0.00  0.00     0.012 A 
ATOM     17  C   UNL d   1      49.005  53.179  50.731  0.00  0.00    -0.003 A 
ENDBRANCH   1  10
BRANCH   2  18
ATOM     18  N   UNL d   1      47.012  55.983  54.745  0.00  0.00    -0.041 N 
ATOM     19  C   UNL d   1      47.571  57.215  55.285  0.00  0.00     0.242 C 
ATOM     20  H   UNL d   1      46.524  56.200  53.876  0.00  0.00     0.279 HD
ATOM     21  H   UNL d   1      46.379  55.599  55.447  0.00  0.00     0.279 HD
ENDBRANCH   2  18
TORSDOF 2

ENDMDL
MODEL 4
REMARK VINA RESULT:    -7.241     19.248     20.710
REMARK INTER + INTRA:          -8.580
REMARK INTER:                  -8.017
REMARK INTRA:                  -0.563
REMARK UNBOUND:                -0.492
REMARK  2 active torsions:
REMARK  status: ('A' for Active; 'I' for Inactive)
REMARK    1  A    between atoms: C_5  and  N_3 
REMARK    2  A    between atoms: C_4  and  C_9 
ROOT
ATOM      1  C   UNL d   1      55.163  36.843  49.175  0.00  0.00     0.046 C 
ATOM      2  C   UNL d   1      56.415  37.729  47.224  0.00  0.00     0.204 C 
ATOM      3  C   UNL d   1      54.996  37.517  47.795  0.00  0.00     0.043 C 
ATOM      4  C   UNL d   1      56.417  36.040  48.948  0.00  0.00    -0.021 A 
ATOM      5  C   UNL d   1      57.132  36.551  47.850  0.00  0.00     0.002 A 
ATOM      6  C   UNL d   1      56.929  34.996  49.706  0.00  0.00    -0.004 A 
ATOM      7  C   UNL d   1      58.356  36.009  47.484  0.00  0.00    -0.003 A 
ATOM      8  C   UNL d   1      58.155  34.441  49.339  0.00  0.00    -0.000 A 
ATOM      9  C   UNL d   1      58.864  34.943  48.237  0.00  0.00    -0.000 A 
ENDROOT
BRANCH   1  10
ATOM     10  C   UNL d   1      53.932  36.069  49.599  0.00  0.00    -0.018 A 
ATOM     11  C   UNL d   1      53.145  35.362  48.672  0.00  0.00     0.008 A 
ATOM     12  C   UNL d   1      51.984  34.692  49.077  0.00  0.00     0.068 A 
ATOM     13 CL   UNL d   1      51.063  33.875  47.865  0.00  0.00    -0.082 Cl
ATOM     14  C   UNL d   1      51.603  34.711  50.422  0.00  0.00     0.068 A 
ATOM     15 CL   UNL d   1      50.182  33.915  50.996  0.00  0.00    -0.082 Cl
ATOM     16  C   UNL d   1      52.387  35.396  51.354  0.00  0.00     0.012 A 
ATOM     17  C   UNL d   1      53.541  36.070  50.944  0.00  0.00    -0.003 A 
ENDBRANCH   1  10
BRANCH   2  18
ATOM     18  N   UNL d   1      57.042  38.985  47.636  0.00  0.00    -0.041 N 
ATOM     19  C   UNL d   1      57.801  39.615  46.563  0.00  0.00     0.242 C 
ATOM     20  H   UNL d   1      56.313  39.629  47.941  0.00  0.00     0.279 HD
ATOM     21  H   UNL d   1      57.696  38.771  48.389  0.00  0.00     0.279 HD
ENDBRANCH   2  18
TORSDOF 2

ENDMDL
MODEL 5
REMARK VINA RESULT:    -6.781      2.749      4.077
REMARK INTER + INTRA:          -8.066
REMARK INTER:                  -7.876
REMARK INTRA:                  -0.190
REMARK UNBOUND:                -0.492
REMARK  2 active torsions:
REMARK  status: ('A' for Active; 'I' for Inactive)
REMARK    1  A    between atoms: C_5  and  N_3 
REMARK    2  A    between atoms: C_4  and  C_9 
ROOT
ATOM      1  C   UNL d   1      49.356  53.255  52.550  0.00  0.00     0.046 C 
ATOM      2  C   UNL d   1      50.343  52.434  50.426  0.00  0.00     0.204 C 
ATOM      3  C   UNL d   1      50.428  53.560  51.480  0.00  0.00     0.043 C 
ATOM      4  C   UNL d   1      48.306  52.573  51.713  0.00  0.00    -0.021 A 
ATOM      5  C   UNL d   1      48.869  52.097  50.517  0.00  0.00     0.002 A 
ATOM      6  C   UNL d   1      46.977  52.317  52.026  0.00  0.00    -0.004 A 
ATOM      7  C   UNL d   1      48.105  51.378  49.607  0.00  0.00    -0.003 A 
ATOM      8  C   UNL d   1      46.202  51.601  51.112  0.00  0.00    -0.000 A 
ATOM      9  C   UNL d   1      46.760  51.135  49.913  0.00  0.00    -0.000 A 
ENDROOT
BRANCH   1  10
ATOM     10  C   UNL d   1      48.919  54.494  53.306  0.00  0.00    -0.018 A 
ATOM     11  C   UNL d   1      49.575  55.728  53.151  0.00  0.00     0.008 A 
ATOM     12  C   UNL d   1      49.185  56.848  53.894  0.00  0.00     0.068 A 
ATOM     13 CL   UNL d   1      50.068  58.315  53.660  0.00  0.00    -0.082 Cl
ATOM     14  C   UNL d   1      48.120  56.750  54.795  0.00  0.00     0.068 A 
ATOM     15 CL   UNL d   1      47.587  58.086  55.751  0.00  0.00    -0.082 Cl
ATOM     16  C   UNL d   1      47.451  55.533  54.944  0.00  0.00     0.012 A 
ATOM     17  C   UNL d   1      47.848  54.415  54.206  0.00  0.00    -0.003 A 
ENDBRANCH   1  10
BRANCH   2  18
ATOM     18  N   UNL d   1      51.155  51.259  50.744  0.00  0.00    -0.041 N 
ATOM     19  C   UNL d   1      52.092  50.917  49.682  0.00  0.00     0.242 C 
ATOM     20  H   UNL d   1      51.683  51.447  51.596  0.00  0.00     0.279 HD
ATOM     21  H   UNL d   1      50.521  50.468  50.859  0.00  0.00     0.279 HD
ENDBRANCH   2  18
TORSDOF 2

ENDMDL
MODEL 6
REMARK VINA RESULT:    -6.776     21.446     24.290
REMARK INTER + INTRA:          -8.060
REMARK INTER:                  -7.618
REMARK INTRA:                  -0.442
REMARK UNBOUND:                -0.492
REMARK  2 active torsions:
REMARK  status: ('A' for Active; 'I' for Inactive)
REMARK    1  A    between atoms: C_5  and  N_3 
REMARK    2  A    between atoms: C_4  and  C_9 
ROOT
ATOM      1  C   UNL d   1      59.071  33.302  48.499  0.00  0.00     0.046 C 
ATOM      2  C   UNL d   1      59.893  34.847  46.739  0.00  0.00     0.204 C 
ATOM      3  C   UNL d   1      60.326  33.716  47.698  0.00  0.00     0.043 C 
ATOM      4  C   UNL d   1      58.332  34.612  48.565  0.00  0.00    -0.021 A 
ATOM      5  C   UNL d   1      58.789  35.481  47.559  0.00  0.00     0.002 A 
ATOM      6  C   UNL d   1      57.278  34.974  49.392  0.00  0.00    -0.004 A 
ATOM      7  C   UNL d   1      58.212  36.732  47.383  0.00  0.00    -0.003 A 
ATOM      8  C   UNL d   1      56.698  36.232  49.226  0.00  0.00    -0.000 A 
ATOM      9  C   UNL d   1      57.160  37.104  48.230  0.00  0.00    -0.000 A 
ENDROOT
BRANCH   1  10
ATOM     10  C   UNL d   1      59.415  32.652  49.824  0.00  0.00    -0.018 A 
ATOM     11  C   UNL d   1      58.456  31.954  50.579  0.00  0.00     0.008 A 
ATOM     12  C   UNL d   1      58.782  31.402  51.823  0.00  0.00     0.068 A 
ATOM     13 CL   UNL d   1      57.531  30.588  52.695  0.00  0.00    -0.082 Cl
ATOM     14  C   UNL d   1      60.082  31.530  52.323  0.00  0.00     0.068 A 
ATOM     15 CL   UNL d   1      60.557  30.883  53.852  0.00  0.00    -0.082 Cl
ATOM     16  C   UNL d   1      61.047  32.207  51.573  0.00  0.00     0.012 A 
ATOM     17  C   UNL d   1      60.715  32.764  50.335  0.00  0.00    -0.003 A 
ENDBRANCH   1  10
BRANCH   2  18
ATOM     18  N   UNL d   1      59.369  34.373  45.457  0.00  0.00    -0.041 N 
ATOM     19  C   UNL d   1      60.404  34.233  44.442  0.00  0.00     0.242 C 
ATOM     20  H   UNL d   1      58.927  33.465  45.601  0.00  0.00     0.279 HD
ATOM     21  H   UNL d   1      58.701  35.069  45.122  0.00  0.00     0.279 HD
ENDBRANCH   2  18
TORSDOF 2

ENDMDL
MODEL 7
REMARK VINA RESULT:    -6.611     21.234     24.052
REMARK INTER + INTRA:          -7.876
REMARK INTER:                  -7.589
REMARK INTRA:                  -0.287
REMARK UNBOUND:                -0.492
REMARK  2 active torsions:
REMARK  status: ('A' for Active; 'I' for Inactive)
REMARK    1  A    between atoms: C_5  and  N_3 
REMARK    2  A    between atoms: C_4  and  C_9 
ROOT
ATOM      1  C   UNL d   1      59.297  34.031  47.705  0.00  0.00     0.046 C 
ATOM      2  C   UNL d   1      60.100  35.521  45.891  0.00  0.00     0.204 C 
ATOM      3  C   UNL d   1      60.538  34.403  46.862  0.00  0.00     0.043 C 
ATOM      4  C   UNL d   1      58.585  35.357  47.761  0.00  0.00    -0.021 A 
ATOM      5  C   UNL d   1      59.031  36.195  46.725  0.00  0.00     0.002 A 
ATOM      6  C   UNL d   1      57.560  35.757  48.608  0.00  0.00    -0.004 A 
ATOM      7  C   UNL d   1      58.474  37.452  46.537  0.00  0.00    -0.003 A 
ATOM      8  C   UNL d   1      57.000  37.023  48.429  0.00  0.00    -0.000 A 
ATOM      9  C   UNL d   1      57.452  37.864  47.402  0.00  0.00    -0.000 A 
ENDROOT
BRANCH   1  10
ATOM     10  C   UNL d   1      59.663  33.404  49.035  0.00  0.00    -0.018 A 
ATOM     11  C   UNL d   1      61.002  33.210  49.420  0.00  0.00     0.008 A 
ATOM     12  C   UNL d   1      61.318  32.585  50.633  0.00  0.00     0.068 A 
ATOM     13 CL   UNL d   1      62.990  32.361  51.010  0.00  0.00    -0.082 Cl
ATOM     14  C   UNL d   1      60.294  32.158  51.484  0.00  0.00     0.068 A 
ATOM     15 CL   UNL d   1      60.606  31.374  52.991  0.00  0.00    -0.082 Cl
ATOM     16  C   UNL d   1      58.961  32.361  51.118  0.00  0.00     0.012 A 
ATOM     17  C   UNL d   1      58.650  32.978  49.904  0.00  0.00    -0.003 A 
ENDBRANCH   1  10
BRANCH   2  18
ATOM     18  N   UNL d   1      59.533  35.030  44.634  0.00  0.00    -0.041 N 
ATOM     19  C   UNL d   1      60.546  34.519  43.720  0.00  0.00     0.242 C 
ATOM     20  H   UNL d   1      58.875  34.280  44.844  0.00  0.00     0.279 HD
ATOM     21  H   UNL d   1      59.074  35.818  44.175  0.00  0.00     0.279 HD
ENDBRANCH   2  18
TORSDOF 2

ENDMDL
MODEL 8
REMARK VINA RESULT:    -6.527     20.875     23.346
REMARK INTER + INTRA:          -7.782
REMARK INTER:                  -7.657
REMARK INTRA:                  -0.125
REMARK UNBOUND:                -0.492
REMARK  2 active torsions:
REMARK  status: ('A' for Active; 'I' for Inactive)
REMARK    1  A    between atoms: C_5  and  N_3 
REMARK    2  A    between atoms: C_4  and  C_9 
ROOT
ATOM      1  C   UNL d   1      58.683  33.426  49.205  0.00  0.00     0.046 C 
ATOM      2  C   UNL d   1      59.248  32.097  51.223  0.00  0.00     0.204 C 
ATOM      3  C   UNL d   1      58.234  33.111  50.650  0.00  0.00     0.043 C 
ATOM      4  C   UNL d   1      60.176  33.276  49.334  0.00  0.00    -0.021 A 
ATOM      5  C   UNL d   1      60.494  32.512  50.469  0.00  0.00     0.002 A 
ATOM      6  C   UNL d   1      61.170  33.707  48.465  0.00  0.00    -0.004 A 
ATOM      7  C   UNL d   1      61.812  32.188  50.763  0.00  0.00    -0.003 A 
ATOM      8  C   UNL d   1      62.497  33.392  48.759  0.00  0.00    -0.000 A 
ATOM      9  C   UNL d   1      62.817  32.639  49.898  0.00  0.00    -0.000 A 
ENDROOT
BRANCH   1  10
ATOM     10  C   UNL d   1      58.178  34.769  48.718  0.00  0.00    -0.018 A 
ATOM     11  C   UNL d   1      58.758  35.426  47.618  0.00  0.00     0.008 A 
ATOM     12  C   UNL d   1      58.307  36.687  47.214  0.00  0.00     0.068 A 
ATOM     13 CL   UNL d   1      59.099  37.432  45.871  0.00  0.00    -0.082 Cl
ATOM     14  C   UNL d   1      57.256  37.304  47.900  0.00  0.00     0.068 A 
ATOM     15 CL   UNL d   1      56.650  38.862  47.465  0.00  0.00    -0.082 Cl
ATOM     16  C   UNL d   1      56.661  36.653  48.984  0.00  0.00     0.012 A 
ATOM     17  C   UNL d   1      57.120  35.397  49.389  0.00  0.00    -0.003 A 
ENDBRANCH   1  10
BRANCH   2  18
ATOM     18  N   UNL d   1      58.920  30.699  50.937  0.00  0.00    -0.041 N 
ATOM     19  C   UNL d   1      57.538  30.368  51.256  0.00  0.00     0.242 C 
ATOM     20  H   UNL d   1      59.076  30.525  49.944  0.00  0.00     0.279 HD
ATOM     21  H   UNL d   1      59.519  30.116  51.521  0.00  0.00     0.279 HD
ENDBRANCH   2  18
TORSDOF 2

ENDMDL
MODEL 9
REMARK VINA RESULT:    -6.442     53.092     55.287
REMARK INTER + INTRA:          -7.687
REMARK INTER:                  -7.284
REMARK INTRA:                  -0.403
REMARK UNBOUND:                -0.492
REMARK  2 active torsions:
REMARK  status: ('A' for Active; 'I' for Inactive)
REMARK    1  A    between atoms: C_5  and  N_3 
REMARK    2  A    between atoms: C_4  and  C_9 
ROOT
ATOM      1  C   UNL d   1      58.294  67.046 107.070  0.00  0.00     0.046 C 
ATOM      2  C   UNL d   1      60.331  65.629 107.003  0.00  0.00     0.204 C 
ATOM      3  C   UNL d   1      59.506  66.654 106.194  0.00  0.00     0.043 C 
ATOM      4  C   UNL d   1      58.067  65.764 107.828  0.00  0.00    -0.021 A 
ATOM      5  C   UNL d   1      59.226  64.969 107.801  0.00  0.00     0.002 A 
ATOM      6  C   UNL d   1      56.953  65.373 108.559  0.00  0.00    -0.004 A 
ATOM      7  C   UNL d   1      59.277  63.762 108.484  0.00  0.00    -0.003 A 
ATOM      8  C   UNL d   1      56.995  64.158 109.243  0.00  0.00    -0.000 A 
ATOM      9  C   UNL d   1      58.146  63.358 109.207  0.00  0.00    -0.000 A 
ENDROOT
BRANCH   1  10
ATOM     10  C   UNL d   1      57.128  67.563 106.253  0.00  0.00    -0.018 A 
ATOM     11  C   UNL d   1      55.975  68.095 106.858  0.00  0.00     0.008 A 
ATOM     12  C   UNL d   1      54.889  68.524 106.086  0.00  0.00     0.068 A 
ATOM     13 CL   UNL d   1      53.503  69.134 106.917  0.00  0.00    -0.082 Cl
ATOM     14  C   UNL d   1      54.950  68.439 104.692  0.00  0.00     0.068 A 
ATOM     15 CL   UNL d   1      53.648  68.941 103.673  0.00  0.00    -0.082 Cl
ATOM     16  C   UNL d   1      56.097  67.928 104.079  0.00  0.00     0.012 A 
ATOM     17  C   UNL d   1      57.176  67.494 104.854  0.00  0.00    -0.003 A 
ENDBRANCH   1  10
BRANCH   2  18
ATOM     18  N   UNL d   1      61.317  66.233 107.900  0.00  0.00    -0.041 N 
ATOM     19  C   UNL d   1      62.053  67.324 107.276  0.00  0.00     0.242 C 
ATOM     20  H   UNL d   1      60.833  66.594 108.722  0.00  0.00     0.279 HD
ATOM     21  H   UNL d   1      61.992  65.509 108.147  0.00  0.00     0.279 HD
ENDBRANCH   2  18
TORSDOF 2

ENDMDL
