REMARK  2 active torsions:
REMARK  status: ('A' for Active; 'I' for Inactive)
REMARK    1  A    between atoms: C_5  and  N_3 
REMARK    2  A    between atoms: C_4  and  C_9 
ROOT
ATOM      1  C   UNL d   1      -3.819   1.447  -0.060  0.00  0.00     0.046 C 
ATOM      2  C   UNL d   1      -5.016   3.358  -1.097  0.00  0.00     0.204 C 
ATOM      3  C   UNL d   1      -4.002   2.228  -1.381  0.00  0.00     0.043 C 
ATOM      4  C   UNL d   1      -4.028   2.545   0.949  0.00  0.00    -0.021 A 
ATOM      5  C   UNL d   1      -4.718   3.621   0.364  0.00  0.00     0.002 A 
ATOM      6  C   UNL d   1      -3.711   2.554   2.301  0.00  0.00    -0.004 A 
ATOM      7  C   UNL d   1      -5.079   4.729   1.118  0.00  0.00    -0.003 A 
ATOM      8  C   UNL d   1      -4.065   3.668   3.063  0.00  0.00    -0.000 A 
ATOM      9  C   UNL d   1      -4.743   4.747   2.478  0.00  0.00    -0.000 A 
ENDROOT
BRANCH   1  10
ATOM     10  C   UNL d   1      -2.495   0.713   0.004  0.00  0.00    -0.018 A 
ATOM     11  C   UNL d   1      -1.266   1.390  -0.089  0.00  0.00     0.008 A 
ATOM     12  C   UNL d   1      -0.055   0.688  -0.075  0.00  0.00     0.068 A 
ATOM     13 CL   UNL d   1       1.405   1.600  -0.225  0.00  0.00    -0.082 Cl
ATOM     14  C   UNL d   1      -0.059  -0.705   0.046  0.00  0.00     0.068 A 
ATOM     15 CL   UNL d   1       1.393  -1.640   0.063  0.00  0.00    -0.082 Cl
ATOM     16  C   UNL d   1      -1.274  -1.386   0.156  0.00  0.00     0.012 A 
ATOM     17  C   UNL d   1      -2.481  -0.682   0.134  0.00  0.00    -0.003 A 
ENDBRANCH   1  10
BRANCH   2  18
ATOM     18  N   UNL d   1      -6.414   2.961  -1.269  0.00  0.00    -0.041 N 
ATOM     19  C   UNL d   1      -6.766   2.725  -2.663  0.00  0.00     0.242 C 
ATOM     20  H   UNL d   1      -6.577   2.103  -0.742  0.00  0.00     0.279 HD
ATOM     21  H   UNL d   1      -6.996   3.728  -0.931  0.00  0.00     0.279 HD
ENDBRANCH   2  18
TORSDOF 2
