REMARK  3 active torsions:
REMARK  status: ('A' for Active; 'I' for Inactive)
REMARK    1  A    between atoms: N_1  and  C_10 
REMARK    2  A    between atoms: C_4  and  C_10 
REMARK    3  A    between atoms: C_17  and  C_19 
ROOT
ATOM      1  C   UNL d   1       0.510  -2.642   2.640  0.00  0.00     0.006 C 
ATOM      2  C   UNL d   1       1.504  -3.877   2.534  0.00  0.00     0.019 C 
ATOM      3  C   UNL d   1       1.052  -1.266   2.035  0.00  0.00     0.029 C 
ATOM      4  C   UNL d   1       2.526  -3.647   1.391  0.00  0.00     0.004 C 
ATOM      5  C   UNL d   1       2.591  -1.199   2.156  0.00  0.00     0.002 C 
ATOM      6  C   UNL d   1      -0.912  -2.956   2.139  0.00  0.00     0.005 C 
ATOM      7  C   UNL d   1       3.322  -2.352   1.486  0.00  0.00     0.000 C 
ATOM      8  C   UNL d   1       0.807  -5.243   2.335  0.00  0.00    -0.027 A 
ATOM      9  C   UNL d   1      -1.480  -4.232   2.726  0.00  0.00     0.026 C 
ATOM     10  C   UNL d   1       2.265  -4.003   3.887  0.00  0.00     0.004 C 
ATOM     11  C   UNL d   1       0.486  -0.110   2.905  0.00  0.00     0.002 C 
ATOM     12  C   UNL d   1      -0.585  -5.398   2.431  0.00  0.00    -0.026 A 
ATOM     13  C   UNL d   1       1.575  -6.405   2.115  0.00  0.00    -0.005 A 
ATOM     14  C   UNL d   1      -1.169  -6.675   2.319  0.00  0.00    -0.009 A 
ATOM     15  C   UNL d   1      -0.393  -7.820   2.101  0.00  0.00    -0.023 A 
ATOM     16  C   UNL d   1       0.987  -7.665   1.991  0.00  0.00    -0.005 A 
ENDROOT
BRANCH   3  17
ATOM     17  C   UNL d   1       0.591  -1.042   0.554  0.00  0.00     0.205 C 
BRANCH  17  18
ATOM     18  N   UNL d   1       1.066   0.177  -0.097  0.00  0.00    -0.064 N 
ATOM     19  H   UNL d   1       0.705   0.216  -1.051  0.00  0.00     0.275 HD
ATOM     20  H   UNL d   1       2.086   0.176  -0.120  0.00  0.00     0.275 HD
ATOM     21  H   UNL d   1       0.738   0.991   0.423  0.00  0.00     0.275 HD
ENDBRANCH  17  18
ENDBRANCH   3  17
BRANCH  15  22
ATOM     22  C   UNL d   1      -1.046  -9.186   2.031  0.00  0.00     0.022 C 
ATOM     23  C   UNL d   1      -0.751  -9.892   0.706  0.00  0.00     0.005 C 
ATOM     24  C   UNL d   1      -0.617 -10.049   3.221  0.00  0.00     0.005 C 
ENDBRANCH  15  22
TORSDOF 3
