MODEL 1
REMARK VINA RESULT:    -8.210      0.000      0.000
REMARK INTER + INTRA:          -9.697
REMARK INTER:                  -9.169
REMARK INTRA:                  -0.527
REMARK UNBOUND:                -0.527
REMARK  2 active torsions:
REMARK  status: ('A' for Active; 'I' for Inactive)
REMARK    1  A    between atoms: C_5  and  N_3 
REMARK    2  A    between atoms: C_4  and  C_9 
ROOT
ATOM      1  C   UNL d   1      43.423  50.185  59.925  0.00  0.00     0.046 C 
ATOM      2  C   UNL d   1      43.269  49.626  62.339  0.00  0.00     0.204 C 
ATOM      3  C   UNL d   1      43.960  50.564  61.324  0.00  0.00     0.043 C 
ATOM      4  C   UNL d   1      43.174  48.711  60.108  0.00  0.00    -0.021 A 
ATOM      5  C   UNL d   1      43.074  48.399  61.474  0.00  0.00     0.002 A 
ATOM      6  C   UNL d   1      42.965  47.740  59.138  0.00  0.00    -0.004 A 
ATOM      7  C   UNL d   1      42.785  47.106  61.889  0.00  0.00    -0.003 A 
ATOM      8  C   UNL d   1      42.681  46.436  59.549  0.00  0.00    -0.000 A 
ATOM      9  C   UNL d   1      42.592  46.121  60.912  0.00  0.00    -0.000 A 
ENDROOT
BRANCH   1  10
ATOM     10  C   UNL d   1      44.372  50.578  58.811  0.00  0.00    -0.018 A 
ATOM     11  C   UNL d   1      43.922  50.805  57.499  0.00  0.00     0.008 A 
ATOM     12  C   UNL d   1      44.822  51.121  56.474  0.00  0.00     0.068 A 
ATOM     13 CL   UNL d   1      44.183  51.354  54.886  0.00  0.00    -0.082 Cl
ATOM     14  C   UNL d   1      46.188  51.226  56.755  0.00  0.00     0.068 A 
ATOM     15 CL   UNL d   1      47.359  51.604  55.543  0.00  0.00    -0.082 Cl
ATOM     16  C   UNL d   1      46.644  51.019  58.059  0.00  0.00     0.012 A 
ATOM     17  C   UNL d   1      45.743  50.696  59.077  0.00  0.00    -0.003 A 
ENDBRANCH   1  10
BRANCH   2  18
ATOM     18  N   UNL d   1      41.980  50.120  62.823  0.00  0.00    -0.041 N 
ATOM     19  C   UNL d   1      42.062  50.697  64.159  0.00  0.00     0.242 C 
ATOM     20  H   UNL d   1      41.641  50.835  62.180  0.00  0.00     0.279 HD
ATOM     21  H   UNL d   1      41.344  49.323  62.872  0.00  0.00     0.279 HD
ENDBRANCH   2  18
TORSDOF 2

ENDMDL
MODEL 2
REMARK VINA RESULT:    -7.260     36.258     40.300
REMARK INTER + INTRA:          -8.636
REMARK INTER:                  -8.059
REMARK INTRA:                  -0.578
REMARK UNBOUND:                -0.527
REMARK  2 active torsions:
REMARK  status: ('A' for Active; 'I' for Inactive)
REMARK    1  A    between atoms: C_5  and  N_3 
REMARK    2  A    between atoms: C_4  and  C_9 
ROOT
ATOM      1  C   UNL d   1      35.823  67.323  93.557  0.00  0.00     0.046 C 
ATOM      2  C   UNL d   1      37.307  66.714  91.663  0.00  0.00     0.204 C 
ATOM      3  C   UNL d   1      36.459  66.127  92.813  0.00  0.00     0.043 C 
ATOM      4  C   UNL d   1      36.884  68.373  93.363  0.00  0.00    -0.021 A 
ATOM      5  C   UNL d   1      37.716  68.034  92.282  0.00  0.00     0.002 A 
ATOM      6  C   UNL d   1      37.046  69.578  94.035  0.00  0.00    -0.004 A 
ATOM      7  C   UNL d   1      38.734  68.884  91.874  0.00  0.00    -0.003 A 
ATOM      8  C   UNL d   1      38.073  70.433  93.634  0.00  0.00    -0.000 A 
ATOM      9  C   UNL d   1      38.910  70.091  92.563  0.00  0.00    -0.000 A 
ENDROOT
BRANCH   1  10
ATOM     10  C   UNL d   1      35.454  66.989  94.988  0.00  0.00    -0.018 A 
ATOM     11  C   UNL d   1      34.197  67.315  95.526  0.00  0.00     0.008 A 
ATOM     12  C   UNL d   1      33.894  67.040  96.865  0.00  0.00     0.068 A 
ATOM     13 CL   UNL d   1      32.334  67.503  97.448  0.00  0.00    -0.082 Cl
ATOM     14  C   UNL d   1      34.845  66.421  97.681  0.00  0.00     0.068 A 
ATOM     15 CL   UNL d   1      34.547  66.057  99.343  0.00  0.00    -0.082 Cl
ATOM     16  C   UNL d   1      36.092  66.077  97.152  0.00  0.00     0.012 A 
ATOM     17  C   UNL d   1      36.393  66.360  95.817  0.00  0.00    -0.003 A 
ENDBRANCH   1  10
BRANCH   2  18
ATOM     18  N   UNL d   1      36.559  66.941  90.426  0.00  0.00    -0.041 N 
ATOM     19  C   UNL d   1      36.812  65.919  89.419  0.00  0.00     0.242 C 
ATOM     20  H   UNL d   1      35.562  66.944  90.644  0.00  0.00     0.279 HD
ATOM     21  H   UNL d   1      36.864  67.835  90.041  0.00  0.00     0.279 HD
ENDBRANCH   2  18
TORSDOF 2

ENDMDL
MODEL 3
REMARK VINA RESULT:    -7.139     19.796     21.550
REMARK INTER + INTRA:          -8.501
REMARK INTER:                  -7.913
REMARK INTRA:                  -0.588
REMARK UNBOUND:                -0.527
REMARK  2 active torsions:
REMARK  status: ('A' for Active; 'I' for Inactive)
REMARK    1  A    between atoms: C_5  and  N_3 
REMARK    2  A    between atoms: C_4  and  C_9 
ROOT
ATOM      1  C   UNL d   1      55.327  36.892  48.800  0.00  0.00     0.046 C 
ATOM      2  C   UNL d   1      56.711  37.755  46.929  0.00  0.00     0.204 C 
ATOM      3  C   UNL d   1      55.256  37.563  47.410  0.00  0.00     0.043 C 
ATOM      4  C   UNL d   1      56.582  36.073  48.654  0.00  0.00    -0.021 A 
ATOM      5  C   UNL d   1      57.372  36.570  47.603  0.00  0.00     0.002 A 
ATOM      6  C   UNL d   1      57.032  35.024  49.446  0.00  0.00    -0.004 A 
ATOM      7  C   UNL d   1      58.609  36.012  47.316  0.00  0.00    -0.003 A 
ATOM      8  C   UNL d   1      58.272  34.453  49.159  0.00  0.00    -0.000 A 
ATOM      9  C   UNL d   1      59.055  34.942  48.103  0.00  0.00    -0.000 A 
ENDROOT
BRANCH   1  10
ATOM     10  C   UNL d   1      54.062  36.135  49.147  0.00  0.00    -0.018 A 
ATOM     11  C   UNL d   1      53.577  36.065  50.465  0.00  0.00     0.008 A 
ATOM     12  C   UNL d   1      52.431  35.321  50.771  0.00  0.00     0.068 A 
ATOM     13 CL   UNL d   1      51.926  35.266  52.423  0.00  0.00    -0.082 Cl
ATOM     14  C   UNL d   1      51.747  34.646  49.756  0.00  0.00     0.068 A 
ATOM     15 CL   UNL d   1      50.332  33.702  50.057  0.00  0.00    -0.082 Cl
ATOM     16  C   UNL d   1      52.211  34.723  48.440  0.00  0.00     0.012 A 
ATOM     17  C   UNL d   1      53.359  35.461  48.140  0.00  0.00    -0.003 A 
ENDBRANCH   1  10
BRANCH   2  18
ATOM     18  N   UNL d   1      57.327  39.005  47.376  0.00  0.00    -0.041 N 
ATOM     19  C   UNL d   1      58.179  39.609  46.360  0.00  0.00     0.242 C 
ATOM     20  H   UNL d   1      56.588  39.665  47.616  0.00  0.00     0.279 HD
ATOM     21  H   UNL d   1      57.916  38.788  48.181  0.00  0.00     0.279 HD
ENDBRANCH   2  18
TORSDOF 2

ENDMDL
MODEL 4
REMARK VINA RESULT:    -7.135     66.509     68.881
REMARK INTER + INTRA:          -8.496
REMARK INTER:                  -7.905
REMARK INTRA:                  -0.591
REMARK UNBOUND:                -0.527
REMARK  2 active torsions:
REMARK  status: ('A' for Active; 'I' for Inactive)
REMARK    1  A    between atoms: C_5  and  N_3 
REMARK    2  A    between atoms: C_4  and  C_9 
ROOT
ATOM      1  C   UNL d   1      52.619  21.814 122.354  0.00  0.00     0.046 C 
ATOM      2  C   UNL d   1      50.922  23.546 122.885  0.00  0.00     0.204 C 
ATOM      3  C   UNL d   1      51.178  22.023 122.871  0.00  0.00     0.043 C 
ATOM      4  C   UNL d   1      52.756  22.988 121.420  0.00  0.00    -0.021 A 
ATOM      5  C   UNL d   1      51.804  23.974 121.731  0.00  0.00     0.002 A 
ATOM      6  C   UNL d   1      53.707  23.204 120.431  0.00  0.00    -0.004 A 
ATOM      7  C   UNL d   1      51.775  25.178 121.042  0.00  0.00    -0.003 A 
ATOM      8  C   UNL d   1      53.679  24.410 119.729  0.00  0.00    -0.000 A 
ATOM      9  C   UNL d   1      52.722  25.389 120.031  0.00  0.00    -0.000 A 
ENDROOT
BRANCH   1  10
ATOM     10  C   UNL d   1      52.827  20.441 121.749  0.00  0.00    -0.018 A 
ATOM     11  C   UNL d   1      54.053  19.760 121.858  0.00  0.00     0.008 A 
ATOM     12  C   UNL d   1      54.239  18.512 121.252  0.00  0.00     0.068 A 
ATOM     13 CL   UNL d   1      55.788  17.763 121.413  0.00  0.00    -0.082 Cl
ATOM     14  C   UNL d   1      53.193  17.923 120.536  0.00  0.00     0.068 A 
ATOM     15 CL   UNL d   1      53.350  16.391 119.754  0.00  0.00    -0.082 Cl
ATOM     16  C   UNL d   1      51.966  18.583 120.435  0.00  0.00     0.012 A 
ATOM     17  C   UNL d   1      51.786  19.832 121.036  0.00  0.00    -0.003 A 
ENDBRANCH   1  10
BRANCH   2  18
ATOM     18  N   UNL d   1      51.342  24.209 124.121  0.00  0.00    -0.041 N 
ATOM     19  C   UNL d   1      51.123  23.388 125.304  0.00  0.00     0.242 C 
ATOM     20  H   UNL d   1      52.336  24.426 124.053  0.00  0.00     0.279 HD
ATOM     21  H   UNL d   1      50.778  25.054 124.224  0.00  0.00     0.279 HD
ENDBRANCH   2  18
TORSDOF 2

ENDMDL
MODEL 5
REMARK VINA RESULT:    -6.925     12.577     14.593
REMARK INTER + INTRA:          -8.262
REMARK INTER:                  -7.694
REMARK INTRA:                  -0.568
REMARK UNBOUND:                -0.527
REMARK  2 active torsions:
REMARK  status: ('A' for Active; 'I' for Inactive)
REMARK    1  A    between atoms: C_5  and  N_3 
REMARK    2  A    between atoms: C_4  and  C_9 
ROOT
ATOM      1  C   UNL d   1      50.335  44.820  47.953  0.00  0.00     0.046 C 
ATOM      2  C   UNL d   1      49.169  46.362  49.510  0.00  0.00     0.204 C 
ATOM      3  C   UNL d   1      50.547  45.753  49.167  0.00  0.00     0.043 C 
ATOM      4  C   UNL d   1      48.927  44.349  48.200  0.00  0.00    -0.021 A 
ATOM      5  C   UNL d   1      48.263  45.231  49.071  0.00  0.00     0.002 A 
ATOM      6  C   UNL d   1      48.257  43.275  47.630  0.00  0.00    -0.004 A 
ATOM      7  C   UNL d   1      46.929  45.036  49.400  0.00  0.00    -0.003 A 
ATOM      8  C   UNL d   1      46.917  43.069  47.962  0.00  0.00    -0.000 A 
ATOM      9  C   UNL d   1      46.258  43.942  48.840  0.00  0.00    -0.000 A 
ENDROOT
BRANCH   1  10
ATOM     10  C   UNL d   1      51.399  43.745  47.853  0.00  0.00    -0.018 A 
ATOM     11  C   UNL d   1      51.806  43.217  46.614  0.00  0.00     0.008 A 
ATOM     12  C   UNL d   1      52.756  42.192  46.546  0.00  0.00     0.068 A 
ATOM     13 CL   UNL d   1      53.173  41.584  44.984  0.00  0.00    -0.082 Cl
ATOM     14  C   UNL d   1      53.323  41.689  47.722  0.00  0.00     0.068 A 
ATOM     15 CL   UNL d   1      54.495  40.420  47.719  0.00  0.00    -0.082 Cl
ATOM     16  C   UNL d   1      52.938  42.218  48.956  0.00  0.00     0.012 A 
ATOM     17  C   UNL d   1      51.984  43.237  49.020  0.00  0.00    -0.003 A 
ENDBRANCH   1  10
BRANCH   2  18
ATOM     18  N   UNL d   1      48.856  47.583  48.767  0.00  0.00    -0.041 N 
ATOM     19  C   UNL d   1      48.094  48.543  49.555  0.00  0.00     0.242 C 
ATOM     20  H   UNL d   1      49.730  48.022  48.476  0.00  0.00     0.279 HD
ATOM     21  H   UNL d   1      48.282  47.319  47.966  0.00  0.00     0.279 HD
ENDBRANCH   2  18
TORSDOF 2

ENDMDL
MODEL 6
REMARK VINA RESULT:    -6.897     57.647     60.317
REMARK INTER + INTRA:          -8.231
REMARK INTER:                  -7.619
REMARK INTRA:                  -0.612
REMARK UNBOUND:                -0.527
REMARK  2 active torsions:
REMARK  status: ('A' for Active; 'I' for Inactive)
REMARK    1  A    between atoms: C_5  and  N_3 
REMARK    2  A    between atoms: C_4  and  C_9 
ROOT
ATOM      1  C   UNL d   1      62.164  34.486 115.506  0.00  0.00     0.046 C 
ATOM      2  C   UNL d   1      62.620  35.002 117.891  0.00  0.00     0.204 C 
ATOM      3  C   UNL d   1      61.551  34.446 116.924  0.00  0.00     0.043 C 
ATOM      4  C   UNL d   1      63.062  35.689 115.620  0.00  0.00    -0.021 A 
ATOM      5  C   UNL d   1      63.331  35.972 116.971  0.00  0.00     0.002 A 
ATOM      6  C   UNL d   1      63.666  36.421 114.606  0.00  0.00    -0.004 A 
ATOM      7  C   UNL d   1      64.188  37.004 117.324  0.00  0.00    -0.003 A 
ATOM      8  C   UNL d   1      64.523  37.465 114.955  0.00  0.00    -0.000 A 
ATOM      9  C   UNL d   1      64.783  37.755 116.302  0.00  0.00    -0.000 A 
ENDROOT
BRANCH   1  10
ATOM     10  C   UNL d   1      61.111  34.529 114.418  0.00  0.00    -0.018 A 
ATOM     11  C   UNL d   1      61.220  33.755 113.249  0.00  0.00     0.008 A 
ATOM     12  C   UNL d   1      60.260  33.846 112.234  0.00  0.00     0.068 A 
ATOM     13 CL   UNL d   1      60.491  32.880 110.819  0.00  0.00    -0.082 Cl
ATOM     14  C   UNL d   1      59.167  34.705 112.384  0.00  0.00     0.068 A 
ATOM     15 CL   UNL d   1      57.947  34.876 111.173  0.00  0.00    -0.082 Cl
ATOM     16  C   UNL d   1      59.040  35.466 113.549  0.00  0.00     0.012 A 
ATOM     17  C   UNL d   1      60.005  35.378 114.556  0.00  0.00    -0.003 A 
ENDBRANCH   1  10
BRANCH   2  18
ATOM     18  N   UNL d   1      63.555  33.992 118.389  0.00  0.00    -0.041 N 
ATOM     19  C   UNL d   1      62.884  32.803 118.896  0.00  0.00     0.242 C 
ATOM     20  H   UNL d   1      64.175  33.717 117.626  0.00  0.00     0.279 HD
ATOM     21  H   UNL d   1      64.072  34.407 119.164  0.00  0.00     0.279 HD
ENDBRANCH   2  18
TORSDOF 2

ENDMDL
MODEL 7
REMARK VINA RESULT:    -6.797     23.436     25.043
REMARK INTER + INTRA:          -8.119
REMARK INTER:                  -7.665
REMARK INTRA:                  -0.454
REMARK UNBOUND:                -0.527
REMARK  2 active torsions:
REMARK  status: ('A' for Active; 'I' for Inactive)
REMARK    1  A    between atoms: C_5  and  N_3 
REMARK    2  A    between atoms: C_4  and  C_9 
ROOT
ATOM      1  C   UNL d   1      59.072  33.215  48.663  0.00  0.00     0.046 C 
ATOM      2  C   UNL d   1      59.885  34.828  46.960  0.00  0.00     0.204 C 
ATOM      3  C   UNL d   1      60.331  33.686  47.900  0.00  0.00     0.043 C 
ATOM      4  C   UNL d   1      58.294  34.502  48.744  0.00  0.00    -0.021 A 
ATOM      5  C   UNL d   1      58.746  35.409  47.770  0.00  0.00     0.002 A 
ATOM      6  C   UNL d   1      57.211  34.812  49.557  0.00  0.00    -0.004 A 
ATOM      7  C   UNL d   1      58.136  36.646  47.613  0.00  0.00    -0.003 A 
ATOM      8  C   UNL d   1      56.598  36.056  49.408  0.00  0.00    -0.000 A 
ATOM      9  C   UNL d   1      57.056  36.967  48.445  0.00  0.00    -0.000 A 
ENDROOT
BRANCH   1  10
ATOM     10  C   UNL d   1      59.407  32.543  49.979  0.00  0.00    -0.018 A 
ATOM     11  C   UNL d   1      58.444  31.826  50.711  0.00  0.00     0.008 A 
ATOM     12  C   UNL d   1      58.761  31.252  51.948  0.00  0.00     0.068 A 
ATOM     13 CL   UNL d   1      57.507  30.414  52.792  0.00  0.00    -0.082 Cl
ATOM     14  C   UNL d   1      60.055  31.378  52.463  0.00  0.00     0.068 A 
ATOM     15 CL   UNL d   1      60.519  30.705  53.984  0.00  0.00    -0.082 Cl
ATOM     16  C   UNL d   1      61.024  32.075  51.736  0.00  0.00     0.012 A 
ATOM     17  C   UNL d   1      60.701  32.653  50.505  0.00  0.00    -0.003 A 
ENDBRANCH   1  10
BRANCH   2  18
ATOM     18  N   UNL d   1      59.403  34.371  45.656  0.00  0.00    -0.041 N 
ATOM     19  C   UNL d   1      60.381  33.559  44.945  0.00  0.00     0.242 C 
ATOM     20  H   UNL d   1      58.559  33.816  45.796  0.00  0.00     0.279 HD
ATOM     21  H   UNL d   1      59.220  35.199  45.088  0.00  0.00     0.279 HD
ENDBRANCH   2  18
TORSDOF 2

ENDMDL
MODEL 8
REMARK VINA RESULT:    -6.722     13.674     15.757
REMARK INTER + INTRA:          -8.036
REMARK INTER:                  -7.963
REMARK INTRA:                  -0.073
REMARK UNBOUND:                -0.527
REMARK  2 active torsions:
REMARK  status: ('A' for Active; 'I' for Inactive)
REMARK    1  A    between atoms: C_5  and  N_3 
REMARK    2  A    between atoms: C_4  and  C_9 
ROOT
ATOM      1  C   UNL d   1      49.074  43.101  46.734  0.00  0.00     0.046 C 
ATOM      2  C   UNL d   1      50.390  44.685  48.119  0.00  0.00     0.204 C 
ATOM      3  C   UNL d   1      50.339  43.226  47.614  0.00  0.00     0.043 C 
ATOM      4  C   UNL d   1      48.162  44.093  47.406  0.00  0.00    -0.021 A 
ATOM      5  C   UNL d   1      48.910  44.998  48.180  0.00  0.00     0.002 A 
ATOM      6  C   UNL d   1      46.788  44.237  47.274  0.00  0.00    -0.004 A 
ATOM      7  C   UNL d   1      48.290  46.044  48.848  0.00  0.00    -0.003 A 
ATOM      8  C   UNL d   1      46.157  45.283  47.949  0.00  0.00    -0.000 A 
ATOM      9  C   UNL d   1      46.901  46.180  48.730  0.00  0.00    -0.000 A 
ENDROOT
BRANCH   1  10
ATOM     10  C   UNL d   1      48.570  41.675  46.639  0.00  0.00    -0.018 A 
ATOM     11  C   UNL d   1      48.746  40.902  45.478  0.00  0.00     0.008 A 
ATOM     12  C   UNL d   1      48.231  39.603  45.394  0.00  0.00     0.068 A 
ATOM     13 CL   UNL d   1      48.469  38.737  43.917  0.00  0.00    -0.082 Cl
ATOM     14  C   UNL d   1      47.542  39.055  46.480  0.00  0.00     0.068 A 
ATOM     15 CL   UNL d   1      46.872  37.464  46.449  0.00  0.00    -0.082 Cl
ATOM     16  C   UNL d   1      47.376  39.809  47.645  0.00  0.00     0.012 A 
ATOM     17  C   UNL d   1      47.885  41.108  47.722  0.00  0.00    -0.003 A 
ENDBRANCH   1  10
BRANCH   2  18
ATOM     18  N   UNL d   1      51.070  45.607  47.208  0.00  0.00    -0.041 N 
ATOM     19  C   UNL d   1      51.084  46.978  47.700  0.00  0.00     0.242 C 
ATOM     20  H   UNL d   1      52.033  45.295  47.085  0.00  0.00     0.279 HD
ATOM     21  H   UNL d   1      50.556  45.603  46.326  0.00  0.00     0.279 HD
ENDBRANCH   2  18
TORSDOF 2

ENDMDL
MODEL 9
REMARK VINA RESULT:    -6.666      7.881     11.893
REMARK INTER + INTRA:          -7.972
REMARK INTER:                  -7.568
REMARK INTRA:                  -0.405
REMARK UNBOUND:                -0.527
REMARK  2 active torsions:
REMARK  status: ('A' for Active; 'I' for Inactive)
REMARK    1  A    between atoms: C_5  and  N_3 
REMARK    2  A    between atoms: C_4  and  C_9 
ROOT
ATOM      1  C   UNL d   1      48.884  52.740  50.857  0.00  0.00     0.046 C 
ATOM      2  C   UNL d   1      50.028  51.381  49.123  0.00  0.00     0.204 C 
ATOM      3  C   UNL d   1      48.938  51.334  50.217  0.00  0.00     0.043 C 
ATOM      4  C   UNL d   1      50.320  53.170  50.717  0.00  0.00    -0.021 A 
ATOM      5  C   UNL d   1      50.963  52.409  49.724  0.00  0.00     0.002 A 
ATOM      6  C   UNL d   1      50.982  54.211  51.354  0.00  0.00    -0.004 A 
ATOM      7  C   UNL d   1      52.281  52.665  49.374  0.00  0.00    -0.003 A 
ATOM      8  C   UNL d   1      52.309  54.470  51.010  0.00  0.00    -0.000 A 
ATOM      9  C   UNL d   1      52.955  53.704  50.029  0.00  0.00    -0.000 A 
ENDROOT
BRANCH   1  10
ATOM     10  C   UNL d   1      48.320  52.718  52.263  0.00  0.00    -0.018 A 
ATOM     11  C   UNL d   1      47.997  53.900  52.952  0.00  0.00     0.008 A 
ATOM     12  C   UNL d   1      47.521  53.860  54.268  0.00  0.00     0.068 A 
ATOM     13 CL   UNL d   1      47.179  55.364  55.046  0.00  0.00    -0.082 Cl
ATOM     14  C   UNL d   1      47.349  52.629  54.908  0.00  0.00     0.068 A 
ATOM     15 CL   UNL d   1      46.774  52.499  56.532  0.00  0.00    -0.082 Cl
ATOM     16  C   UNL d   1      47.651  51.447  54.227  0.00  0.00     0.012 A 
ATOM     17  C   UNL d   1      48.133  51.492  52.916  0.00  0.00    -0.003 A 
ENDBRANCH   1  10
BRANCH   2  18
ATOM     18  N   UNL d   1      49.543  51.834  47.819  0.00  0.00    -0.041 N 
ATOM     19  C   UNL d   1      49.442  50.753  46.847  0.00  0.00     0.242 C 
ATOM     20  H   UNL d   1      48.620  52.251  47.940  0.00  0.00     0.279 HD
ATOM     21  H   UNL d   1      50.217  52.510  47.457  0.00  0.00     0.279 HD
ENDBRANCH   2  18
TORSDOF 2

ENDMDL
