MODEL 1
REMARK VINA RESULT:    -7.963      0.000      0.000
REMARK INTER + INTRA:          -9.568
REMARK INTER:                  -8.894
REMARK INTRA:                  -0.673
REMARK UNBOUND:                -0.673
REMARK  2 active torsions:
REMARK  status: ('A' for Active; 'I' for Inactive)
REMARK    1  A    between atoms: C_6  and  N_3 
REMARK    2  A    between atoms: C_4  and  C_10 
ROOT
ATOM      1  C   UNL d   1      49.465  53.500  51.488  0.00  0.00     0.044 C 
ATOM      2  C   UNL d   1      49.389  54.287  52.802  0.00  0.00     0.011 C 
ATOM      3  C   UNL d   1      47.746  52.626  53.840  0.00  0.00     0.203 C 
ATOM      4  C   UNL d   1      49.081  53.387  53.987  0.00  0.00     0.035 C 
ATOM      5  C   UNL d   1      48.296  52.542  51.321  0.00  0.00    -0.021 A 
ATOM      6  C   UNL d   1      47.500  52.125  52.411  0.00  0.00     0.002 A 
ATOM      7  C   UNL d   1      48.038  52.047  50.026  0.00  0.00    -0.004 A 
ATOM      8  C   UNL d   1      46.411  51.272  52.137  0.00  0.00    -0.003 A 
ATOM      9  C   UNL d   1      46.991  51.160  49.794  0.00  0.00    -0.000 A 
ATOM     10  C   UNL d   1      46.169  50.782  50.850  0.00  0.00    -0.000 A 
ENDROOT
BRANCH   1  11
ATOM     11  C   UNL d   1      50.825  52.831  51.299  0.00  0.00    -0.018 A 
ATOM     12  C   UNL d   1      51.869  53.547  50.691  0.00  0.00     0.008 A 
ATOM     13  C   UNL d   1      53.129  52.966  50.512  0.00  0.00     0.068 A 
ATOM     14 CL   UNL d   1      54.351  53.921  49.749  0.00  0.00    -0.082 Cl
ATOM     15  C   UNL d   1      53.364  51.658  50.950  0.00  0.00     0.068 A 
ATOM     16 CL   UNL d   1      54.898  50.884  50.781  0.00  0.00    -0.082 Cl
ATOM     17  C   UNL d   1      52.331  50.933  51.550  0.00  0.00     0.012 A 
ATOM     18  C   UNL d   1      51.074  51.516  51.722  0.00  0.00    -0.003 A 
ENDBRANCH   1  11
BRANCH   3  19
ATOM     19  N   UNL d   1      47.749  51.510  54.808  0.00  0.00    -0.041 N 
ATOM     20  C   UNL d   1      46.839  51.687  55.933  0.00  0.00     0.242 C 
ATOM     21  H   UNL d   1      48.695  51.409  55.176  0.00  0.00     0.279 HD
ATOM     22  H   UNL d   1      47.430  50.684  54.303  0.00  0.00     0.279 HD
ENDBRANCH   3  19
TORSDOF 2

ENDMDL
MODEL 2
REMARK VINA RESULT:    -7.339     64.284     67.159
REMARK INTER + INTRA:          -8.870
REMARK INTER:                  -8.225
REMARK INTRA:                  -0.645
REMARK UNBOUND:                -0.673
REMARK  2 active torsions:
REMARK  status: ('A' for Active; 'I' for Inactive)
REMARK    1  A    between atoms: C_6  and  N_3 
REMARK    2  A    between atoms: C_4  and  C_10 
ROOT
ATOM      1  C   UNL d   1      62.812  34.120 115.149  0.00  0.00     0.044 C 
ATOM      2  C   UNL d   1      62.627  32.977 116.154  0.00  0.00     0.011 C 
ATOM      3  C   UNL d   1      62.651  34.573 118.152  0.00  0.00     0.203 C 
ATOM      4  C   UNL d   1      61.911  33.438 117.413  0.00  0.00     0.035 C 
ATOM      5  C   UNL d   1      63.344  35.384 115.802  0.00  0.00    -0.021 A 
ATOM      6  C   UNL d   1      63.265  35.605 117.195  0.00  0.00     0.002 A 
ATOM      7  C   UNL d   1      63.909  36.366 114.962  0.00  0.00    -0.004 A 
ATOM      8  C   UNL d   1      63.833  36.791 117.704  0.00  0.00    -0.003 A 
ATOM      9  C   UNL d   1      64.411  37.554 115.484  0.00  0.00    -0.000 A 
ATOM     10  C   UNL d   1      64.384  37.761 116.859  0.00  0.00    -0.000 A 
ENDROOT
BRANCH   1  11
ATOM     11  C   UNL d   1      61.555  34.356 114.313  0.00  0.00    -0.018 A 
ATOM     12  C   UNL d   1      61.452  33.775 113.039  0.00  0.00     0.008 A 
ATOM     13  C   UNL d   1      60.310  33.964 112.253  0.00  0.00     0.068 A 
ATOM     14 CL   UNL d   1      60.276  33.217 110.695  0.00  0.00    -0.082 Cl
ATOM     15  C   UNL d   1      59.247  34.732 112.740  0.00  0.00     0.068 A 
ATOM     16 CL   UNL d   1      57.800  34.992 111.836  0.00  0.00    -0.082 Cl
ATOM     17  C   UNL d   1      59.340  35.321 114.004  0.00  0.00     0.012 A 
ATOM     18  C   UNL d   1      60.484  35.133 114.782  0.00  0.00    -0.003 A 
ENDBRANCH   1  11
BRANCH   3  19
ATOM     19  N   UNL d   1      61.697  35.207 119.086  0.00  0.00    -0.041 N 
ATOM     20  C   UNL d   1      61.465  34.451 120.311  0.00  0.00     0.242 C 
ATOM     21  H   UNL d   1      60.805  35.317 118.604  0.00  0.00     0.279 HD
ATOM     22  H   UNL d   1      62.110  36.096 119.366  0.00  0.00     0.279 HD
ENDBRANCH   3  19
TORSDOF 2

ENDMDL
MODEL 3
REMARK VINA RESULT:    -7.333     42.935     45.985
REMARK INTER + INTRA:          -8.864
REMARK INTER:                  -8.098
REMARK INTRA:                  -0.766
REMARK UNBOUND:                -0.673
REMARK  2 active torsions:
REMARK  status: ('A' for Active; 'I' for Inactive)
REMARK    1  A    between atoms: C_6  and  N_3 
REMARK    2  A    between atoms: C_4  and  C_10 
ROOT
ATOM      1  C   UNL d   1      37.569  66.814  93.070  0.00  0.00     0.044 C 
ATOM      2  C   UNL d   1      38.541  68.000  93.092  0.00  0.00     0.011 C 
ATOM      3  C   UNL d   1      37.955  68.676  90.697  0.00  0.00     0.203 C 
ATOM      4  C   UNL d   1      38.091  69.120  92.169  0.00  0.00     0.035 C 
ATOM      5  C   UNL d   1      37.183  66.409  91.657  0.00  0.00    -0.021 A 
ATOM      6  C   UNL d   1      37.352  67.273  90.552  0.00  0.00     0.002 A 
ATOM      7  C   UNL d   1      36.615  65.131  91.475  0.00  0.00    -0.004 A 
ATOM      8  C   UNL d   1      37.006  66.779  89.277  0.00  0.00    -0.003 A 
ATOM      9  C   UNL d   1      36.230  64.691  90.213  0.00  0.00    -0.000 A 
ATOM     10  C   UNL d   1      36.437  65.513  89.111  0.00  0.00    -0.000 A 
ENDROOT
BRANCH   1  11
ATOM     11  C   UNL d   1      36.365  67.044  93.982  0.00  0.00    -0.018 A 
ATOM     12  C   UNL d   1      36.393  66.561  95.300  0.00  0.00     0.008 A 
ATOM     13  C   UNL d   1      35.310  66.764  96.162  0.00  0.00     0.068 A 
ATOM     14 CL   UNL d   1      35.431  66.127  97.764  0.00  0.00    -0.082 Cl
ATOM     15  C   UNL d   1      34.184  67.465  95.717  0.00  0.00     0.068 A 
ATOM     16 CL   UNL d   1      32.821  67.771  96.731  0.00  0.00    -0.082 Cl
ATOM     17  C   UNL d   1      34.141  67.945  94.405  0.00  0.00     0.012 A 
ATOM     18  C   UNL d   1      35.223  67.735  93.547  0.00  0.00    -0.003 A 
ENDBRANCH   1  11
BRANCH   3  19
ATOM     19  N   UNL d   1      37.141  69.687  89.990  0.00  0.00    -0.041 N 
ATOM     20  C   UNL d   1      35.965  70.133  90.725  0.00  0.00     0.242 C 
ATOM     21  H   UNL d   1      36.831  69.284  89.105  0.00  0.00     0.279 HD
ATOM     22  H   UNL d   1      37.736  70.506  89.866  0.00  0.00     0.279 HD
ENDBRANCH   3  19
TORSDOF 2

ENDMDL
MODEL 4
REMARK VINA RESULT:    -7.285      9.824     11.606
REMARK INTER + INTRA:          -8.810
REMARK INTER:                  -8.279
REMARK INTRA:                  -0.531
REMARK UNBOUND:                -0.673
REMARK  2 active torsions:
REMARK  status: ('A' for Active; 'I' for Inactive)
REMARK    1  A    between atoms: C_6  and  N_3 
REMARK    2  A    between atoms: C_4  and  C_10 
ROOT
ATOM      1  C   UNL d   1      48.977  43.399  46.238  0.00  0.00     0.044 C 
ATOM      2  C   UNL d   1      50.502  43.543  46.173  0.00  0.00     0.011 C 
ATOM      3  C   UNL d   1      50.621  44.580  48.507  0.00  0.00     0.203 C 
ATOM      4  C   UNL d   1      51.137  43.483  47.553  0.00  0.00     0.035 C 
ATOM      5  C   UNL d   1      48.357  44.288  47.304  0.00  0.00    -0.021 A 
ATOM      6  C   UNL d   1      49.114  44.832  48.366  0.00  0.00     0.002 A 
ATOM      7  C   UNL d   1      46.972  44.539  47.222  0.00  0.00    -0.004 A 
ATOM      8  C   UNL d   1      48.449  45.683  49.274  0.00  0.00    -0.003 A 
ATOM      9  C   UNL d   1      46.331  45.336  48.164  0.00  0.00    -0.000 A 
ATOM     10  C   UNL d   1      47.074  45.918  49.185  0.00  0.00    -0.000 A 
ENDROOT
BRANCH   1  11
ATOM     11  C   UNL d   1      48.543  41.938  46.343  0.00  0.00    -0.018 A 
ATOM     12  C   UNL d   1      48.884  41.040  45.320  0.00  0.00     0.008 A 
ATOM     13  C   UNL d   1      48.511  39.694  45.391  0.00  0.00     0.068 A 
ATOM     14 CL   UNL d   1      48.969  38.663  44.081  0.00  0.00    -0.082 Cl
ATOM     15  C   UNL d   1      47.796  39.225  46.499  0.00  0.00     0.068 A 
ATOM     16 CL   UNL d   1      47.318  37.574  46.665  0.00  0.00    -0.082 Cl
ATOM     17  C   UNL d   1      47.444  40.111  47.521  0.00  0.00     0.012 A 
ATOM     18  C   UNL d   1      47.815  41.455  47.442  0.00  0.00    -0.003 A 
ENDBRANCH   1  11
BRANCH   3  19
ATOM     19  N   UNL d   1      50.973  44.187  49.887  0.00  0.00    -0.041 N 
ATOM     20  C   UNL d   1      51.693  42.923  49.987  0.00  0.00     0.242 C 
ATOM     21  H   UNL d   1      50.110  44.107  50.425  0.00  0.00     0.279 HD
ATOM     22  H   UNL d   1      51.599  44.908  50.246  0.00  0.00     0.279 HD
ENDBRANCH   3  19
TORSDOF 2

ENDMDL
MODEL 5
REMARK VINA RESULT:    -7.169     70.251     73.318
REMARK INTER + INTRA:          -8.681
REMARK INTER:                  -7.998
REMARK INTRA:                  -0.683
REMARK UNBOUND:                -0.673
REMARK  2 active torsions:
REMARK  status: ('A' for Active; 'I' for Inactive)
REMARK    1  A    between atoms: C_6  and  N_3 
REMARK    2  A    between atoms: C_4  and  C_10 
ROOT
ATOM      1  C   UNL d   1      41.589  54.583 124.765  0.00  0.00     0.044 C 
ATOM      2  C   UNL d   1      42.794  54.117 123.940  0.00  0.00     0.011 C 
ATOM      3  C   UNL d   1      41.624  54.629 121.725  0.00  0.00     0.203 C 
ATOM      4  C   UNL d   1      42.877  54.834 122.602  0.00  0.00     0.035 C 
ATOM      5  C   UNL d   1      40.309  54.630 123.945  0.00  0.00    -0.021 A 
ATOM      6  C   UNL d   1      40.320  54.660 122.533  0.00  0.00     0.002 A 
ATOM      7  C   UNL d   1      39.086  54.670 124.644  0.00  0.00    -0.004 A 
ATOM      8  C   UNL d   1      39.075  54.654 121.869  0.00  0.00    -0.003 A 
ATOM      9  C   UNL d   1      37.873  54.722 123.965  0.00  0.00    -0.000 A 
ATOM     10  C   UNL d   1      37.868  54.701 122.574  0.00  0.00    -0.000 A 
ENDROOT
BRANCH   1  11
ATOM     11  C   UNL d   1      41.875  55.885 125.512  0.00  0.00    -0.018 A 
ATOM     12  C   UNL d   1      42.251  55.838 126.863  0.00  0.00     0.008 A 
ATOM     13  C   UNL d   1      42.529  57.012 127.572  0.00  0.00     0.068 A 
ATOM     14 CL   UNL d   1      42.977  56.857 129.234  0.00  0.00    -0.082 Cl
ATOM     15  C   UNL d   1      42.443  58.252 126.931  0.00  0.00     0.068 A 
ATOM     16 CL   UNL d   1      42.791  59.739 127.736  0.00  0.00    -0.082 Cl
ATOM     17  C   UNL d   1      42.063  58.312 125.587  0.00  0.00     0.012 A 
ATOM     18  C   UNL d   1      41.782  57.138 124.886  0.00  0.00    -0.003 A 
ENDBRANCH   1  11
BRANCH   3  19
ATOM     19  N   UNL d   1      41.630  55.667 120.673  0.00  0.00    -0.041 N 
ATOM     20  C   UNL d   1      42.752  56.594 120.749  0.00  0.00     0.242 C 
ATOM     21  H   UNL d   1      40.766  56.204 120.751  0.00  0.00     0.279 HD
ATOM     22  H   UNL d   1      41.715  55.179 119.781  0.00  0.00     0.279 HD
ENDBRANCH   3  19
TORSDOF 2

ENDMDL
MODEL 6
REMARK VINA RESULT:    -7.134     47.700     49.745
REMARK INTER + INTRA:          -8.642
REMARK INTER:                  -8.085
REMARK INTRA:                  -0.557
REMARK UNBOUND:                -0.673
REMARK  2 active torsions:
REMARK  status: ('A' for Active; 'I' for Inactive)
REMARK    1  A    between atoms: C_6  and  N_3 
REMARK    2  A    between atoms: C_4  and  C_10 
ROOT
ATOM      1  C   UNL d   1      49.707  27.417  93.636  0.00  0.00     0.044 C 
ATOM      2  C   UNL d   1      49.200  28.505  92.682  0.00  0.00     0.011 C 
ATOM      3  C   UNL d   1      47.824  26.836  91.319  0.00  0.00     0.203 C 
ATOM      4  C   UNL d   1      47.836  28.164  92.104  0.00  0.00     0.035 C 
ATOM      5  C   UNL d   1      49.551  26.021  93.054  0.00  0.00    -0.021 A 
ATOM      6  C   UNL d   1      48.672  25.743  91.984  0.00  0.00     0.002 A 
ATOM      7  C   UNL d   1      50.303  24.982  93.640  0.00  0.00    -0.004 A 
ATOM      8  C   UNL d   1      48.640  24.423  91.490  0.00  0.00    -0.003 A 
ATOM      9  C   UNL d   1      50.210  23.676  93.169  0.00  0.00    -0.000 A 
ATOM     10  C   UNL d   1      49.385  23.399  92.084  0.00  0.00    -0.000 A 
ENDROOT
BRANCH   1  11
ATOM     11  C   UNL d   1      49.110  27.558  95.035  0.00  0.00    -0.018 A 
ATOM     12  C   UNL d   1      49.964  27.714  96.138  0.00  0.00     0.008 A 
ATOM     13  C   UNL d   1      49.448  27.856  97.431  0.00  0.00     0.068 A 
ATOM     14 CL   UNL d   1      50.576  28.036  98.729  0.00  0.00    -0.082 Cl
ATOM     15  C   UNL d   1      48.064  27.853  97.635  0.00  0.00     0.068 A 
ATOM     16 CL   UNL d   1      47.356  28.042  99.198  0.00  0.00    -0.082 Cl
ATOM     17  C   UNL d   1      47.204  27.691  96.546  0.00  0.00     0.012 A 
ATOM     18  C   UNL d   1      47.724  27.545  95.258  0.00  0.00    -0.003 A 
ENDBRANCH   1  11
BRANCH   3  19
ATOM     19  N   UNL d   1      46.418  26.408  91.168  0.00  0.00    -0.041 N 
ATOM     20  C   UNL d   1      45.555  26.776  92.283  0.00  0.00     0.242 C 
ATOM     21  H   UNL d   1      46.403  25.392  91.074  0.00  0.00     0.279 HD
ATOM     22  H   UNL d   1      46.053  26.888  90.346  0.00  0.00     0.279 HD
ENDBRANCH   3  19
TORSDOF 2

ENDMDL
MODEL 7
REMARK VINA RESULT:    -6.997     57.451     59.563
REMARK INTER + INTRA:          -8.488
REMARK INTER:                  -7.824
REMARK INTRA:                  -0.664
REMARK UNBOUND:                -0.673
REMARK  2 active torsions:
REMARK  status: ('A' for Active; 'I' for Inactive)
REMARK    1  A    between atoms: C_6  and  N_3 
REMARK    2  A    between atoms: C_4  and  C_10 
ROOT
ATOM      1  C   UNL d   1      60.162  32.085 105.924  0.00  0.00     0.044 C 
ATOM      2  C   UNL d   1      58.781  32.693 105.656  0.00  0.00     0.011 C 
ATOM      3  C   UNL d   1      58.182  30.880 103.956  0.00  0.00     0.203 C 
ATOM      4  C   UNL d   1      57.769  31.641 105.233  0.00  0.00     0.035 C 
ATOM      5  C   UNL d   1      60.599  31.135 104.821  0.00  0.00    -0.021 A 
ATOM      6  C   UNL d   1      59.683  30.565 103.909  0.00  0.00     0.002 A 
ATOM      7  C   UNL d   1      61.969  30.807 104.745  0.00  0.00    -0.004 A 
ATOM      8  C   UNL d   1      60.201  29.733 102.895  0.00  0.00    -0.003 A 
ATOM      9  C   UNL d   1      62.445  29.939 103.769  0.00  0.00    -0.000 A 
ATOM     10  C   UNL d   1      61.560  29.411 102.835  0.00  0.00    -0.000 A 
ENDROOT
BRANCH   1  11
ATOM     11  C   UNL d   1      60.257  31.474 107.321  0.00  0.00    -0.018 A 
ATOM     12  C   UNL d   1      60.580  32.293 108.414  0.00  0.00     0.008 A 
ATOM     13  C   UNL d   1      60.664  31.765 109.707  0.00  0.00     0.068 A 
ATOM     14 CL   UNL d   1      61.074  32.848 110.990  0.00  0.00    -0.082 Cl
ATOM     15  C   UNL d   1      60.417  30.405 109.924  0.00  0.00     0.068 A 
ATOM     16 CL   UNL d   1      60.484  29.688 111.493  0.00  0.00    -0.082 Cl
ATOM     17  C   UNL d   1      60.102  29.577 108.843  0.00  0.00     0.012 A 
ATOM     18  C   UNL d   1      60.024  30.109 107.553  0.00  0.00    -0.003 A 
ENDBRANCH   1  11
BRANCH   3  19
ATOM     19  N   UNL d   1      57.371  29.648 103.877  0.00  0.00    -0.041 N 
ATOM     20  C   UNL d   1      55.971  29.870 103.535  0.00  0.00     0.242 C 
ATOM     21  H   UNL d   1      57.408  29.183 104.785  0.00  0.00     0.279 HD
ATOM     22  H   UNL d   1      57.768  29.084 103.127  0.00  0.00     0.279 HD
ENDBRANCH   3  19
TORSDOF 2

ENDMDL
MODEL 8
REMARK VINA RESULT:    -6.872     19.453     21.920
REMARK INTER + INTRA:          -8.348
REMARK INTER:                  -7.770
REMARK INTRA:                  -0.578
REMARK UNBOUND:                -0.673
REMARK  2 active torsions:
REMARK  status: ('A' for Active; 'I' for Inactive)
REMARK    1  A    between atoms: C_6  and  N_3 
REMARK    2  A    between atoms: C_4  and  C_10 
ROOT
ATOM      1  C   UNL d   1      57.808  31.777  50.050  0.00  0.00     0.044 C 
ATOM      2  C   UNL d   1      57.474  30.575  50.940  0.00  0.00     0.011 C 
ATOM      3  C   UNL d   1      59.579  30.888  52.356  0.00  0.00     0.203 C 
ATOM      4  C   UNL d   1      58.045  30.729  52.341  0.00  0.00     0.035 C 
ATOM      5  C   UNL d   1      59.273  32.174  50.140  0.00  0.00    -0.021 A 
ATOM      6  C   UNL d   1      60.098  31.772  51.213  0.00  0.00     0.002 A 
ATOM      7  C   UNL d   1      59.792  32.994  49.118  0.00  0.00    -0.004 A 
ATOM      8  C   UNL d   1      61.455  32.155  51.175  0.00  0.00    -0.003 A 
ATOM      9  C   UNL d   1      61.120  33.406  49.134  0.00  0.00    -0.000 A 
ATOM     10  C   UNL d   1      61.956  32.975  50.159  0.00  0.00    -0.000 A 
ENDROOT
BRANCH   1  11
ATOM     11  C   UNL d   1      56.851  32.945  50.281  0.00  0.00    -0.018 A 
ATOM     12  C   UNL d   1      55.506  32.824  49.896  0.00  0.00     0.008 A 
ATOM     13  C   UNL d   1      54.603  33.872  50.103  0.00  0.00     0.068 A 
ATOM     14 CL   UNL d   1      52.969  33.635  49.590  0.00  0.00    -0.082 Cl
ATOM     15  C   UNL d   1      55.033  35.056  50.711  0.00  0.00     0.068 A 
ATOM     16 CL   UNL d   1      53.972  36.382  51.017  0.00  0.00    -0.082 Cl
ATOM     17  C   UNL d   1      56.371  35.191  51.093  0.00  0.00     0.012 A 
ATOM     18  C   UNL d   1      57.270  34.144  50.879  0.00  0.00    -0.003 A 
ENDBRANCH   1  11
BRANCH   3  19
ATOM     19  N   UNL d   1      59.968  31.431  53.674  0.00  0.00    -0.041 N 
ATOM     20  C   UNL d   1      60.155  30.421  54.709  0.00  0.00     0.242 C 
ATOM     21  H   UNL d   1      59.237  32.072  53.983  0.00  0.00     0.279 HD
ATOM     22  H   UNL d   1      60.870  31.889  53.548  0.00  0.00     0.279 HD
ENDBRANCH   3  19
TORSDOF 2

ENDMDL
MODEL 9
REMARK VINA RESULT:    -6.850      9.825     11.573
REMARK INTER + INTRA:          -8.324
REMARK INTER:                  -7.938
REMARK INTRA:                  -0.386
REMARK UNBOUND:                -0.673
REMARK  2 active torsions:
REMARK  status: ('A' for Active; 'I' for Inactive)
REMARK    1  A    between atoms: C_6  and  N_3 
REMARK    2  A    between atoms: C_4  and  C_10 
ROOT
ATOM      1  C   UNL d   1      50.319  42.300  48.175  0.00  0.00     0.044 C 
ATOM      2  C   UNL d   1      51.669  42.482  47.472  0.00  0.00     0.011 C 
ATOM      3  C   UNL d   1      50.747  41.661  45.233  0.00  0.00     0.203 C 
ATOM      4  C   UNL d   1      51.502  42.773  45.989  0.00  0.00     0.035 C 
ATOM      5  C   UNL d   1      49.387  41.376  47.408  0.00  0.00    -0.021 A 
ATOM      6  C   UNL d   1      49.575  41.082  46.039  0.00  0.00     0.002 A 
ATOM      7  C   UNL d   1      48.290  40.829  48.104  0.00  0.00    -0.004 A 
ATOM      8  C   UNL d   1      48.680  40.175  45.435  0.00  0.00    -0.003 A 
ATOM      9  C   UNL d   1      47.388  39.981  47.468  0.00  0.00    -0.000 A 
ATOM     10  C   UNL d   1      47.591  39.645  46.135  0.00  0.00    -0.000 A 
ENDROOT
BRANCH   1  11
ATOM     11  C   UNL d   1      49.677  43.638  48.539  0.00  0.00    -0.018 A 
ATOM     12  C   UNL d   1      48.367  43.914  48.119  0.00  0.00     0.008 A 
ATOM     13  C   UNL d   1      47.748  45.125  48.445  0.00  0.00     0.068 A 
ATOM     14 CL   UNL d   1      46.135  45.380  47.879  0.00  0.00    -0.082 Cl
ATOM     15  C   UNL d   1      48.434  46.077  49.207  0.00  0.00     0.068 A 
ATOM     16 CL   UNL d   1      47.728  47.585  49.663  0.00  0.00    -0.082 Cl
ATOM     17  C   UNL d   1      49.742  45.817  49.625  0.00  0.00     0.012 A 
ATOM     18  C   UNL d   1      50.356  44.608  49.293  0.00  0.00    -0.003 A 
ENDBRANCH   1  11
BRANCH   3  19
ATOM     19  N   UNL d   1      50.289  42.216  43.942  0.00  0.00    -0.041 N 
ATOM     20  C   UNL d   1      50.512  43.649  43.792  0.00  0.00     0.242 C 
ATOM     21  H   UNL d   1      49.288  42.037  43.856  0.00  0.00     0.279 HD
ATOM     22  H   UNL d   1      50.838  41.758  43.216  0.00  0.00     0.279 HD
ENDBRANCH   3  19
TORSDOF 2

ENDMDL
