MODEL 1
REMARK VINA RESULT:    -7.382      0.000      0.000
REMARK INTER + INTRA:          -8.774
REMARK INTER:                  -8.245
REMARK INTRA:                  -0.529
REMARK UNBOUND:                -0.529
REMARK  2 active torsions:
REMARK  status: ('A' for Active; 'I' for Inactive)
REMARK    1  A    between atoms: C_6  and  N_3 
REMARK    2  A    between atoms: C_4  and  C_10 
ROOT
ATOM      1  C   UNL d   1      48.997  43.474  46.368  0.00  0.00     0.044 C 
ATOM      2  C   UNL d   1      50.522  43.575  46.253  0.00  0.00     0.011 C 
ATOM      3  C   UNL d   1      50.749  44.597  48.586  0.00  0.00     0.203 C 
ATOM      4  C   UNL d   1      51.201  43.490  47.611  0.00  0.00     0.035 C 
ATOM      5  C   UNL d   1      48.438  44.375  47.459  0.00  0.00    -0.021 A 
ATOM      6  C   UNL d   1      49.245  44.892  48.497  0.00  0.00     0.002 A 
ATOM      7  C   UNL d   1      47.059  44.666  47.424  0.00  0.00    -0.004 A 
ATOM      8  C   UNL d   1      48.636  45.756  49.430  0.00  0.00    -0.003 A 
ATOM      9  C   UNL d   1      46.473  45.475  48.391  0.00  0.00    -0.000 A 
ATOM     10  C   UNL d   1      47.266  46.031  49.389  0.00  0.00    -0.000 A 
ENDROOT
BRANCH   1  11
ATOM     11  C   UNL d   1      48.525  42.026  46.482  0.00  0.00    -0.018 A 
ATOM     12  C   UNL d   1      48.830  41.117  45.456  0.00  0.00     0.008 A 
ATOM     13  C   UNL d   1      48.422  39.781  45.535  0.00  0.00     0.068 A 
ATOM     14 CL   UNL d   1      48.836  38.737  44.222  0.00  0.00    -0.082 Cl
ATOM     15  C   UNL d   1      47.707  39.334  46.652  0.00  0.00     0.068 A 
ATOM     16 CL   UNL d   1      47.188  37.697  46.827  0.00  0.00    -0.082 Cl
ATOM     17  C   UNL d   1      47.391  40.231  47.676  0.00  0.00     0.012 A 
ATOM     18  C   UNL d   1      47.798  41.564  47.590  0.00  0.00    -0.003 A 
ENDBRANCH   1  11
BRANCH   3  19
ATOM     19  N   UNL d   1      51.136  44.186  49.952  0.00  0.00    -0.041 N 
ATOM     20  C   UNL d   1      51.657  42.829  50.047  0.00  0.00     0.242 C 
ATOM     21  H   UNL d   1      50.312  44.254  50.550  0.00  0.00     0.279 HD
ATOM     22  H   UNL d   1      51.889  44.809  50.242  0.00  0.00     0.279 HD
ENDBRANCH   3  19
TORSDOF 2

ENDMDL
MODEL 2
REMARK VINA RESULT:    -7.359     76.332     78.514
REMARK INTER + INTRA:          -8.749
REMARK INTER:                  -8.169
REMARK INTRA:                  -0.580
REMARK UNBOUND:                -0.529
REMARK  2 active torsions:
REMARK  status: ('A' for Active; 'I' for Inactive)
REMARK    1  A    between atoms: C_6  and  N_3 
REMARK    2  A    between atoms: C_4  and  C_10 
ROOT
ATOM      1  C   UNL d   1      41.785  54.799 124.835  0.00  0.00     0.044 C 
ATOM      2  C   UNL d   1      43.110  54.242 124.302  0.00  0.00     0.011 C 
ATOM      3  C   UNL d   1      42.372  54.494 121.867  0.00  0.00     0.203 C 
ATOM      4  C   UNL d   1      43.449  54.800 122.929  0.00  0.00     0.035 C 
ATOM      5  C   UNL d   1      40.677  54.749 123.796  0.00  0.00    -0.021 A 
ATOM      6  C   UNL d   1      40.943  54.617 122.415  0.00  0.00     0.002 A 
ATOM      7  C   UNL d   1      39.348  54.869 124.251  0.00  0.00    -0.004 A 
ATOM      8  C   UNL d   1      39.840  54.533 121.541  0.00  0.00    -0.003 A 
ATOM      9  C   UNL d   1      38.280  54.840 123.361  0.00  0.00    -0.000 A 
ATOM     10  C   UNL d   1      38.526  54.660 122.004  0.00  0.00    -0.000 A 
ENDROOT
BRANCH   1  11
ATOM     11  C   UNL d   1      41.957  56.178 125.469  0.00  0.00    -0.018 A 
ATOM     12  C   UNL d   1      41.630  56.364 126.821  0.00  0.00     0.008 A 
ATOM     13  C   UNL d   1      41.786  57.612 127.433  0.00  0.00     0.068 A 
ATOM     14 CL   UNL d   1      41.351  57.748 129.100  0.00  0.00    -0.082 Cl
ATOM     15  C   UNL d   1      42.283  58.694 126.698  0.00  0.00     0.068 A 
ATOM     16 CL   UNL d   1      42.520  60.257 127.391  0.00  0.00    -0.082 Cl
ATOM     17  C   UNL d   1      42.605  58.523 125.349  0.00  0.00     0.012 A 
ATOM     18  C   UNL d   1      42.443  57.276 124.741  0.00  0.00    -0.003 A 
ENDBRANCH   1  11
BRANCH   3  19
ATOM     19  N   UNL d   1      42.588  55.403 120.723  0.00  0.00    -0.041 N 
ATOM     20  C   UNL d   1      43.064  56.731 121.092  0.00  0.00     0.242 C 
ATOM     21  H   UNL d   1      41.703  55.508 120.227  0.00  0.00     0.279 HD
ATOM     22  H   UNL d   1      43.317  54.982 120.148  0.00  0.00     0.279 HD
ENDBRANCH   3  19
TORSDOF 2

ENDMDL
MODEL 3
REMARK VINA RESULT:    -7.132     47.226     49.473
REMARK INTER + INTRA:          -8.495
REMARK INTER:                  -7.905
REMARK INTRA:                  -0.590
REMARK UNBOUND:                -0.529
REMARK  2 active torsions:
REMARK  status: ('A' for Active; 'I' for Inactive)
REMARK    1  A    between atoms: C_6  and  N_3 
REMARK    2  A    between atoms: C_4  and  C_10 
ROOT
ATOM      1  C   UNL d   1      49.433  27.416  93.360  0.00  0.00     0.044 C 
ATOM      2  C   UNL d   1      48.937  28.523  92.423  0.00  0.00     0.011 C 
ATOM      3  C   UNL d   1      47.528  26.890  91.050  0.00  0.00     0.203 C 
ATOM      4  C   UNL d   1      47.564  28.209  91.850  0.00  0.00     0.035 C 
ATOM      5  C   UNL d   1      49.253  26.029  92.764  0.00  0.00    -0.021 A 
ATOM      6  C   UNL d   1      48.363  25.777  91.697  0.00  0.00     0.002 A 
ATOM      7  C   UNL d   1      49.993  24.972  93.333  0.00  0.00    -0.004 A 
ATOM      8  C   UNL d   1      48.308  24.463  91.187  0.00  0.00    -0.003 A 
ATOM      9  C   UNL d   1      49.877  23.674  92.848  0.00  0.00    -0.000 A 
ATOM     10  C   UNL d   1      49.042  23.422  91.765  0.00  0.00    -0.000 A 
ENDROOT
BRANCH   1  11
ATOM     11  C   UNL d   1      48.848  27.550  94.765  0.00  0.00    -0.018 A 
ATOM     12  C   UNL d   1      49.707  27.750  95.857  0.00  0.00     0.008 A 
ATOM     13  C   UNL d   1      49.202  27.886  97.154  0.00  0.00     0.068 A 
ATOM     14 CL   UNL d   1      50.336  28.121  98.436  0.00  0.00    -0.082 Cl
ATOM     15  C   UNL d   1      47.821  27.834  97.374  0.00  0.00     0.068 A 
ATOM     16 CL   UNL d   1      47.124  28.014  98.943  0.00  0.00    -0.082 Cl
ATOM     17  C   UNL d   1      46.955  27.629  96.297  0.00  0.00     0.012 A 
ATOM     18  C   UNL d   1      47.466  27.488  95.004  0.00  0.00    -0.003 A 
ENDBRANCH   1  11
BRANCH   3  19
ATOM     19  N   UNL d   1      46.114  26.485  90.902  0.00  0.00    -0.041 N 
ATOM     20  C   UNL d   1      45.333  26.575  92.129  0.00  0.00     0.242 C 
ATOM     21  H   UNL d   1      46.093  25.517  90.580  0.00  0.00     0.279 HD
ATOM     22  H   UNL d   1      45.692  27.133  90.239  0.00  0.00     0.279 HD
ENDBRANCH   3  19
TORSDOF 2

ENDMDL
MODEL 4
REMARK VINA RESULT:    -7.105     58.921     61.260
REMARK INTER + INTRA:          -8.465
REMARK INTER:                  -7.782
REMARK INTRA:                  -0.683
REMARK UNBOUND:                -0.529
REMARK  2 active torsions:
REMARK  status: ('A' for Active; 'I' for Inactive)
REMARK    1  A    between atoms: C_6  and  N_3 
REMARK    2  A    between atoms: C_4  and  C_10 
ROOT
ATOM      1  C   UNL d   1      60.169  32.112 105.886  0.00  0.00     0.044 C 
ATOM      2  C   UNL d   1      58.788  32.714 105.602  0.00  0.00     0.011 C 
ATOM      3  C   UNL d   1      58.228  30.915 103.874  0.00  0.00     0.203 C 
ATOM      4  C   UNL d   1      57.790  31.660 105.152  0.00  0.00     0.035 C 
ATOM      5  C   UNL d   1      60.630  31.176 104.781  0.00  0.00    -0.021 A 
ATOM      6  C   UNL d   1      59.732  30.609 103.849  0.00  0.00     0.002 A 
ATOM      7  C   UNL d   1      62.003  30.858 104.724  0.00  0.00    -0.004 A 
ATOM      8  C   UNL d   1      60.272  29.791 102.834  0.00  0.00    -0.003 A 
ATOM      9  C   UNL d   1      62.500  30.002 103.746  0.00  0.00    -0.000 A 
ATOM     10  C   UNL d   1      61.634  29.477 102.793  0.00  0.00    -0.000 A 
ENDROOT
BRANCH   1  11
ATOM     11  C   UNL d   1      60.246  31.487 107.278  0.00  0.00    -0.018 A 
ATOM     12  C   UNL d   1      60.556  32.295 108.383  0.00  0.00     0.008 A 
ATOM     13  C   UNL d   1      60.624  31.755 109.671  0.00  0.00     0.068 A 
ATOM     14 CL   UNL d   1      61.020  32.825 110.970  0.00  0.00    -0.082 Cl
ATOM     15  C   UNL d   1      60.372  30.394 109.872  0.00  0.00     0.068 A 
ATOM     16 CL   UNL d   1      60.418  29.662 111.435  0.00  0.00    -0.082 Cl
ATOM     17  C   UNL d   1      60.068  29.577 108.779  0.00  0.00     0.012 A 
ATOM     18  C   UNL d   1      60.007  30.121 107.494  0.00  0.00    -0.003 A 
ENDBRANCH   1  11
BRANCH   3  19
ATOM     19  N   UNL d   1      57.427  29.678 103.770  0.00  0.00    -0.041 N 
ATOM     20  C   UNL d   1      56.286  29.623 104.675  0.00  0.00     0.242 C 
ATOM     21  H   UNL d   1      58.036  28.886 103.976  0.00  0.00     0.279 HD
ATOM     22  H   UNL d   1      57.049  29.653 102.823  0.00  0.00     0.279 HD
ENDBRANCH   3  19
TORSDOF 2

ENDMDL
MODEL 5
REMARK VINA RESULT:    -6.908     12.441     14.743
REMARK INTER + INTRA:          -8.244
REMARK INTER:                  -7.593
REMARK INTRA:                  -0.651
REMARK UNBOUND:                -0.529
REMARK  2 active torsions:
REMARK  status: ('A' for Active; 'I' for Inactive)
REMARK    1  A    between atoms: C_6  and  N_3 
REMARK    2  A    between atoms: C_4  and  C_10 
ROOT
ATOM      1  C   UNL d   1      58.033  31.813  49.851  0.00  0.00     0.044 C 
ATOM      2  C   UNL d   1      57.704  30.583  50.704  0.00  0.00     0.011 C 
ATOM      3  C   UNL d   1      59.762  30.911  52.184  0.00  0.00     0.203 C 
ATOM      4  C   UNL d   1      58.233  30.717  52.123  0.00  0.00     0.035 C 
ATOM      5  C   UNL d   1      59.485  32.242  49.991  0.00  0.00    -0.021 A 
ATOM      6  C   UNL d   1      60.291  31.833  51.077  0.00  0.00     0.002 A 
ATOM      7  C   UNL d   1      60.012  33.098  49.002  0.00  0.00    -0.004 A 
ATOM      8  C   UNL d   1      61.638  32.249  51.085  0.00  0.00    -0.003 A 
ATOM      9  C   UNL d   1      61.330  33.539  49.065  0.00  0.00    -0.000 A 
ATOM     10  C   UNL d   1      62.147  33.104  50.102  0.00  0.00    -0.000 A 
ENDROOT
BRANCH   1  11
ATOM     11  C   UNL d   1      57.043  32.953  50.083  0.00  0.00    -0.018 A 
ATOM     12  C   UNL d   1      55.790  32.921  49.450  0.00  0.00     0.008 A 
ATOM     13  C   UNL d   1      54.858  33.944  49.649  0.00  0.00     0.068 A 
ATOM     14 CL   UNL d   1      53.344  33.822  48.823  0.00  0.00    -0.082 Cl
ATOM     15  C   UNL d   1      55.165  35.013  50.497  0.00  0.00     0.068 A 
ATOM     16 CL   UNL d   1      54.057  36.301  50.806  0.00  0.00    -0.082 Cl
ATOM     17  C   UNL d   1      56.411  35.061  51.128  0.00  0.00     0.012 A 
ATOM     18  C   UNL d   1      57.341  34.039  50.921  0.00  0.00    -0.003 A 
ENDBRANCH   1  11
BRANCH   3  19
ATOM     19  N   UNL d   1      60.102  31.432  53.525  0.00  0.00    -0.041 N 
ATOM     20  C   UNL d   1      59.530  30.670  54.628  0.00  0.00     0.242 C 
ATOM     21  H   UNL d   1      59.763  32.391  53.590  0.00  0.00     0.279 HD
ATOM     22  H   UNL d   1      61.115  31.362  53.617  0.00  0.00     0.279 HD
ENDBRANCH   3  19
TORSDOF 2

ENDMDL
MODEL 6
REMARK VINA RESULT:    -6.885     21.573     23.295
REMARK INTER + INTRA:          -8.219
REMARK INTER:                  -7.544
REMARK INTRA:                  -0.675
REMARK UNBOUND:                -0.529
REMARK  2 active torsions:
REMARK  status: ('A' for Active; 'I' for Inactive)
REMARK    1  A    between atoms: C_6  and  N_3 
REMARK    2  A    between atoms: C_4  and  C_10 
ROOT
ATOM      1  C   UNL d   1      32.231  48.822  34.956  0.00  0.00     0.044 C 
ATOM      2  C   UNL d   1      33.584  48.934  35.667  0.00  0.00     0.011 C 
ATOM      3  C   UNL d   1      34.864  49.097  33.460  0.00  0.00     0.203 C 
ATOM      4  C   UNL d   1      34.594  49.719  34.846  0.00  0.00     0.035 C 
ATOM      5  C   UNL d   1      32.375  48.414  33.499  0.00  0.00    -0.021 A 
ATOM      6  C   UNL d   1      33.593  48.548  32.796  0.00  0.00     0.002 A 
ATOM      7  C   UNL d   1      31.232  47.914  32.843  0.00  0.00    -0.004 A 
ATOM      8  C   UNL d   1      33.631  48.095  31.460  0.00  0.00    -0.003 A 
ATOM      9  C   UNL d   1      31.283  47.528  31.508  0.00  0.00    -0.000 A 
ATOM     10  C   UNL d   1      32.488  47.607  30.819  0.00  0.00    -0.000 A 
ENDROOT
BRANCH   1  11
ATOM     11  C   UNL d   1      31.375  50.072  35.151  0.00  0.00    -0.018 A 
ATOM     12  C   UNL d   1      31.417  51.096  34.192  0.00  0.00     0.008 A 
ATOM     13  C   UNL d   1      30.638  52.249  34.336  0.00  0.00     0.068 A 
ATOM     14 CL   UNL d   1      30.761  53.459  33.108  0.00  0.00    -0.082 Cl
ATOM     15  C   UNL d   1      29.796  52.388  35.444  0.00  0.00     0.068 A 
ATOM     16 CL   UNL d   1      28.792  53.773  35.679  0.00  0.00    -0.082 Cl
ATOM     17  C   UNL d   1      29.750  51.379  36.411  0.00  0.00     0.012 A 
ATOM     18  C   UNL d   1      30.534  50.232  36.263  0.00  0.00    -0.003 A 
ENDBRANCH   1  11
BRANCH   3  19
ATOM     19  N   UNL d   1      35.510  50.124  32.617  0.00  0.00    -0.041 N 
ATOM     20  C   UNL d   1      34.879  51.436  32.678  0.00  0.00     0.242 C 
ATOM     21  H   UNL d   1      35.486  49.802  31.649  0.00  0.00     0.279 HD
ATOM     22  H   UNL d   1      36.458  50.240  32.973  0.00  0.00     0.279 HD
ENDBRANCH   3  19
TORSDOF 2

ENDMDL
MODEL 7
REMARK VINA RESULT:    -6.811      9.514     11.754
REMARK INTER + INTRA:          -8.136
REMARK INTER:                  -7.671
REMARK INTRA:                  -0.465
REMARK UNBOUND:                -0.529
REMARK  2 active torsions:
REMARK  status: ('A' for Active; 'I' for Inactive)
REMARK    1  A    between atoms: C_6  and  N_3 
REMARK    2  A    between atoms: C_4  and  C_10 
ROOT
ATOM      1  C   UNL d   1      56.623  36.153  49.460  0.00  0.00     0.044 C 
ATOM      2  C   UNL d   1      56.934  37.252  48.437  0.00  0.00     0.011 C 
ATOM      3  C   UNL d   1      58.452  35.715  47.071  0.00  0.00     0.203 C 
ATOM      4  C   UNL d   1      57.247  36.679  47.065  0.00  0.00     0.035 C 
ATOM      5  C   UNL d   1      57.636  35.021  49.418  0.00  0.00    -0.021 A 
ATOM      6  C   UNL d   1      58.483  34.807  48.308  0.00  0.00     0.002 A 
ATOM      7  C   UNL d   1      57.694  34.154  50.528  0.00  0.00    -0.004 A 
ATOM      8  C   UNL d   1      59.420  33.757  48.392  0.00  0.00    -0.003 A 
ATOM      9  C   UNL d   1      58.590  33.090  50.562  0.00  0.00    -0.000 A 
ATOM     10  C   UNL d   1      59.462  32.899  49.496  0.00  0.00    -0.000 A 
ENDROOT
BRANCH   1  11
ATOM     11  C   UNL d   1      55.176  35.672  49.362  0.00  0.00    -0.018 A 
ATOM     12  C   UNL d   1      54.338  35.767  50.484  0.00  0.00     0.008 A 
ATOM     13  C   UNL d   1      53.006  35.344  50.423  0.00  0.00     0.068 A 
ATOM     14 CL   UNL d   1      52.051  35.492  51.856  0.00  0.00    -0.082 Cl
ATOM     15  C   UNL d   1      52.490  34.828  49.229  0.00  0.00     0.068 A 
ATOM     16 CL   UNL d   1      50.852  34.305  49.074  0.00  0.00    -0.082 Cl
ATOM     17  C   UNL d   1      53.317  34.722  48.107  0.00  0.00     0.012 A 
ATOM     18  C   UNL d   1      54.648  35.141  48.175  0.00  0.00    -0.003 A 
ENDBRANCH   1  11
BRANCH   3  19
ATOM     19  N   UNL d   1      58.408  34.923  45.824  0.00  0.00    -0.041 N 
ATOM     20  C   UNL d   1      59.140  35.515  44.710  0.00  0.00     0.242 C 
ATOM     21  H   UNL d   1      57.432  34.821  45.546  0.00  0.00     0.279 HD
ATOM     22  H   UNL d   1      58.859  34.032  46.027  0.00  0.00     0.279 HD
ENDBRANCH   3  19
TORSDOF 2

ENDMDL
MODEL 8
REMARK VINA RESULT:    -6.786     74.805     77.332
REMARK INTER + INTRA:          -8.108
REMARK INTER:                  -7.452
REMARK INTRA:                  -0.655
REMARK UNBOUND:                -0.529
REMARK  2 active torsions:
REMARK  status: ('A' for Active; 'I' for Inactive)
REMARK    1  A    between atoms: C_6  and  N_3 
REMARK    2  A    between atoms: C_4  and  C_10 
ROOT
ATOM      1  C   UNL d   1      61.746  32.961 123.968  0.00  0.00     0.044 C 
ATOM      2  C   UNL d   1      62.909  33.748 123.352  0.00  0.00     0.011 C 
ATOM      3  C   UNL d   1      63.927  31.651 122.302  0.00  0.00     0.203 C 
ATOM      4  C   UNL d   1      63.427  33.094 122.082  0.00  0.00     0.035 C 
ATOM      5  C   UNL d   1      62.035  31.470 124.047  0.00  0.00    -0.021 A 
ATOM      6  C   UNL d   1      63.040  30.854 123.269  0.00  0.00     0.002 A 
ATOM      7  C   UNL d   1      61.238  30.695 124.914  0.00  0.00    -0.004 A 
ATOM      8  C   UNL d   1      63.257  29.473 123.454  0.00  0.00    -0.003 A 
ATOM      9  C   UNL d   1      61.436  29.324 125.035  0.00  0.00    -0.000 A 
ATOM     10  C   UNL d   1      62.455  28.714 124.312  0.00  0.00    -0.000 A 
ENDROOT
BRANCH   1  11
ATOM     11  C   UNL d   1      60.415  33.283 123.293  0.00  0.00    -0.018 A 
ATOM     12  C   UNL d   1      59.494  34.119 123.943  0.00  0.00     0.008 A 
ATOM     13  C   UNL d   1      58.270  34.442 123.347  0.00  0.00     0.068 A 
ATOM     14 CL   UNL d   1      57.197  35.473 124.226  0.00  0.00    -0.082 Cl
ATOM     15  C   UNL d   1      57.956  33.936 122.081  0.00  0.00     0.068 A 
ATOM     16 CL   UNL d   1      56.474  34.307 121.275  0.00  0.00    -0.082 Cl
ATOM     17  C   UNL d   1      58.861  33.097 121.426  0.00  0.00     0.012 A 
ATOM     18  C   UNL d   1      60.079  32.775 122.028  0.00  0.00    -0.003 A 
ENDBRANCH   1  11
BRANCH   3  19
ATOM     19  N   UNL d   1      64.011  30.991 120.982  0.00  0.00    -0.041 N 
ATOM     20  C   UNL d   1      63.567  31.819 119.867  0.00  0.00     0.242 C 
ATOM     21  H   UNL d   1      63.431  30.153 121.008  0.00  0.00     0.279 HD
ATOM     22  H   UNL d   1      64.997  30.787 120.820  0.00  0.00     0.279 HD
ENDBRANCH   3  19
TORSDOF 2

ENDMDL
MODEL 9
REMARK VINA RESULT:    -6.753     77.915     80.048
REMARK INTER + INTRA:          -8.072
REMARK INTER:                  -7.591
REMARK INTRA:                  -0.480
REMARK UNBOUND:                -0.529
REMARK  2 active torsions:
REMARK  status: ('A' for Active; 'I' for Inactive)
REMARK    1  A    between atoms: C_6  and  N_3 
REMARK    2  A    between atoms: C_4  and  C_10 
ROOT
ATOM      1  C   UNL d   1      40.928  53.677 126.090  0.00  0.00     0.044 C 
ATOM      2  C   UNL d   1      42.334  53.476 125.514  0.00  0.00     0.011 C 
ATOM      3  C   UNL d   1      41.776  54.776 123.385  0.00  0.00     0.203 C 
ATOM      4  C   UNL d   1      42.734  54.609 124.583  0.00  0.00     0.035 C 
ATOM      5  C   UNL d   1      39.916  54.061 125.023  0.00  0.00    -0.021 A 
ATOM      6  C   UNL d   1      40.303  54.580 123.768  0.00  0.00     0.002 A 
ATOM      7  C   UNL d   1      38.549  53.907 125.333  0.00  0.00    -0.004 A 
ATOM      8  C   UNL d   1      39.285  54.859 122.832  0.00  0.00    -0.003 A 
ATOM      9  C   UNL d   1      37.563  54.244 124.412  0.00  0.00    -0.000 A 
ATOM     10  C   UNL d   1      37.933  54.709 123.155  0.00  0.00    -0.000 A 
ENDROOT
BRANCH   1  11
ATOM     11  C   UNL d   1      40.929  54.624 127.289  0.00  0.00    -0.018 A 
ATOM     12  C   UNL d   1      41.290  55.968 127.108  0.00  0.00     0.008 A 
ATOM     13  C   UNL d   1      41.292  56.863 128.184  0.00  0.00     0.068 A 
ATOM     14 CL   UNL d   1      41.757  58.497 127.867  0.00  0.00    -0.082 Cl
ATOM     15  C   UNL d   1      40.921  56.422 129.459  0.00  0.00     0.068 A 
ATOM     16 CL   UNL d   1      40.881  57.472 130.828  0.00  0.00    -0.082 Cl
ATOM     17  C   UNL d   1      40.566  55.084 129.653  0.00  0.00     0.012 A 
ATOM     18  C   UNL d   1      40.571  54.195 128.577  0.00  0.00    -0.003 A 
ENDBRANCH   1  11
BRANCH   3  19
ATOM     19  N   UNL d   1      42.006  56.114 122.801  0.00  0.00    -0.041 N 
ATOM     20  C   UNL d   1      43.051  56.887 123.462  0.00  0.00     0.242 C 
ATOM     21  H   UNL d   1      41.135  56.641 122.858  0.00  0.00     0.279 HD
ATOM     22  H   UNL d   1      42.317  55.965 121.841  0.00  0.00     0.279 HD
ENDBRANCH   3  19
TORSDOF 2

ENDMDL
