          AutoDock 4.2 Release 4.2.6   
         (C) 1989-2012 The Scripps Research Institute
        AutoDock comes with ABSOLUTELY NO WARRANTY.
        AutoDock is free software, and you are welcome
        to redistribute it under certain conditions;
        for details type 'autodock4 -C'

                     main.cc  $Revision: 1.213 $

                   Compiled on Jul 18 2014 at 15:34:58


This file was created at:			12:05 49" p.m., 06/22/2025
                   on host:		"ANTEC-LOUISE"
Current Working Directory = "C:\Users\lam16\Documents\Cours\2025\projet-long\martini_to_allatom\docking\ADT_TM\indatraline"

      ________________________________________________________________

                   SETTING UP DEFAULT PARAMETER LIBRARY
      ________________________________________________________________


Random number generator was seeded with values 25080, 1750586749.
Docking parameter file (DPF) used for this docking:		C:/Users/lam16/Documents/Cours/2025/projet-long/martini_to_allatom/docking/ADT_TM/indatraline/open_tm.dpf
DPF> autodock_parameter_version 4.2       # used by autodock to validate parameter set

	Autodock parameter version 4.2.
DPF> outlev 1                             # diagnostic output level

Output Level = 1  ADT-COMPATIBLE OUTPUT DURING DOCKING.
DPF> intelec                              # calculate internal electrostatics

Electrostatic energies will be calculated for all non-bonds between moving atoms.
DPF> seed pid time                        # seeds for random generator

Random number generator was seeded with values 25080, 1750586749.
DPF> ligand_types A C N HD Cl             # atoms types in ligand

DPF> fld centroid1_all_atom.maps.fld      # grid_data_file

Opening Grid Map Dimensions file:		centroid1_all_atom.maps.fld
Grid Point Spacing =				0.827 Angstroms

Even Number of User-specified Grid Points =	126 x-points
						126 y-points
						126 z-points

Coordinates of Central Grid Point of Maps =	(44.695, 55.169, 91.546)
Macromolecule file used to create Grid Maps =	centroid1_all_atom.pdbqt
Grid Parameter file used to create Grid Maps =	C:/Users/lam16/Documents/Cours/2025/projet-long/martini_to_allatom/docking/ADT_TM/indatraline/open_tm.gpf
Minimum coordinates in grid = (-7.406, 3.068, 39.445)
Maximum coordinates in grid = (96.796, 107.270, 143.647)

DPF> map centroid1_all_atom.A.map         # atom-specific affinity map

DPF> map centroid1_all_atom.C.map         # atom-specific affinity map

DPF> map centroid1_all_atom.N.map         # atom-specific affinity map

DPF> map centroid1_all_atom.HD.map        # atom-specific affinity map

DPF> map centroid1_all_atom.Cl.map        # atom-specific affinity map

DPF> elecmap centroid1_all_atom.e.map     # electrostatics map

DPF> desolvmap centroid1_all_atom.d.map   # desolvation map

DPF> move indatraline.pdbqt               # small molecule

1,4-interactions will be _ignored_ in the non-bonded internal energy calculation.

Ligand PDBQT file = "indatraline.pdbqt"

INPUT LIGAND PDBQT FILE:
________________________

INPUT-LIGAND-PDBQT: REMARK  2 active torsions:
INPUT-LIGAND-PDBQT: REMARK  status: ('A' for Active; 'I' for Inactive)
INPUT-LIGAND-PDBQT: REMARK    1  A    between atoms: C_5  and  N_3 
INPUT-LIGAND-PDBQT: REMARK    2  A    between atoms: C_4  and  C_9 
INPUT-LIGAND-PDBQT: ROOT
INPUT-LIGAND-PDBQT: ATOM      1  C   UNL d   1      -3.819   1.447  -0.060  0.00  0.00     0.046 C 
INPUT-LIGAND-PDBQT: ATOM      2  C   UNL d   1      -5.016   3.358  -1.097  0.00  0.00     0.204 C 
INPUT-LIGAND-PDBQT: ATOM      3  C   UNL d   1      -4.002   2.228  -1.381  0.00  0.00     0.043 C 
INPUT-LIGAND-PDBQT: ATOM      4  C   UNL d   1      -4.028   2.545   0.949  0.00  0.00    -0.021 A 
INPUT-LIGAND-PDBQT: ATOM      5  C   UNL d   1      -4.718   3.621   0.364  0.00  0.00     0.002 A 
INPUT-LIGAND-PDBQT: ATOM      6  C   UNL d   1      -3.711   2.554   2.301  0.00  0.00    -0.004 A 
INPUT-LIGAND-PDBQT: ATOM      7  C   UNL d   1      -5.079   4.729   1.118  0.00  0.00    -0.003 A 
INPUT-LIGAND-PDBQT: ATOM      8  C   UNL d   1      -4.065   3.668   3.063  0.00  0.00    -0.000 A 
INPUT-LIGAND-PDBQT: ATOM      9  C   UNL d   1      -4.743   4.747   2.478  0.00  0.00    -0.000 A 
INPUT-LIGAND-PDBQT: ENDROOT
INPUT-LIGAND-PDBQT: BRANCH   1  10
INPUT-LIGAND-PDBQT: ATOM     10  C   UNL d   1      -2.495   0.713   0.004  0.00  0.00    -0.018 A 
INPUT-LIGAND-PDBQT: ATOM     11  C   UNL d   1      -1.266   1.390  -0.089  0.00  0.00     0.008 A 
INPUT-LIGAND-PDBQT: ATOM     12  C   UNL d   1      -0.055   0.688  -0.075  0.00  0.00     0.068 A 
INPUT-LIGAND-PDBQT: ATOM     13 CL   UNL d   1       1.405   1.600  -0.225  0.00  0.00    -0.082 Cl
INPUT-LIGAND-PDBQT: ATOM     14  C   UNL d   1      -0.059  -0.705   0.046  0.00  0.00     0.068 A 
INPUT-LIGAND-PDBQT: ATOM     15 CL   UNL d   1       1.393  -1.640   0.063  0.00  0.00    -0.082 Cl
INPUT-LIGAND-PDBQT: ATOM     16  C   UNL d   1      -1.274  -1.386   0.156  0.00  0.00     0.012 A 
INPUT-LIGAND-PDBQT: ATOM     17  C   UNL d   1      -2.481  -0.682   0.134  0.00  0.00    -0.003 A 
INPUT-LIGAND-PDBQT: ENDBRANCH   1  10
INPUT-LIGAND-PDBQT: BRANCH   2  18
INPUT-LIGAND-PDBQT: ATOM     18  N   UNL d   1      -6.414   2.961  -1.269  0.00  0.00    -0.041 N 
INPUT-LIGAND-PDBQT: ATOM     19  C   UNL d   1      -6.766   2.725  -2.663  0.00  0.00     0.242 C 
INPUT-LIGAND-PDBQT: ATOM     20  H   UNL d   1      -6.577   2.103  -0.742  0.00  0.00     0.279 HD
INPUT-LIGAND-PDBQT: ATOM     21  H   UNL d   1      -6.996   3.728  -0.931  0.00  0.00     0.279 HD
INPUT-LIGAND-PDBQT: ENDBRANCH   2  18
INPUT-LIGAND-PDBQT: TORSDOF 2
________________________________________________________________________________

Total charge on ligand                               =	+0.997 e
REMARK  2 active torsions:
REMARK  status: ('A' for Active; 'I' for Inactive)
REMARK    1  A    between atoms: C_5  and  N_3 
REMARK    2  A    between atoms: C_4  and  C_9 


Number of Rotatable Bonds in Small Molecule =	2 torsions
Number of atoms in ligand:  21

Number of non-hydrogen atoms in ligand:  19

Number of vibrational degrees of freedom of ligand:  57


Number of torsional degrees of freedom = 2
Estimated loss of torsional free energy upon binding = +0.5966 kcal/mol


DPF> about -3.370 1.923 0.102            # small molecule center

Small molecule center of rotation =	(-3.370, +1.923, +0.102)

DPF> tran0 random                         # initial coordinates/A or random

Initial translation =			(7.121, 22.819, 87.267) Angstroms
DPF> quaternion0 random                   # initial orientation

Each run will begin with a new, random initial orientation.
Initial quaternion,  (x,y,z,w) =	( 0.589, 0.036, 0.042, 0.806 ),
DPF> dihe0 random                         # initial dihedrals (relative) or random

DPF> torsdof 2                            # torsional degrees of freedom

Number of torsional degrees of freedom = 2
Free energy coefficient for torsional degrees of freedom = 0.2983, the factory default value.

Estimated loss of torsional free energy upon binding = +0.5966 kcal/mol

DPF> rmstol 2.0                           # cluster_tolerance/A

Maximum RMS tolerance for conformational cluster analysis = 2.00 Angstroms
DPF> extnrg 1000.0                        # external grid energy

External grid energy (beyond grid map walls) = 1000.00

DPF> e0max 0.0 10000                      # max initial energy; max number of retries

Using user-specified maximum number of retries for simanneal initialization, 10000 retries.
If the simanneal initial energy is greater than e0max, 0.000,
then a new, random initial state will be created.

DPF> ga_pop_size 150                      # number of individuals in population

A population of 150 individuals will be used
DPF> ga_num_evals 2500000                 # maximum number of energy evaluations

There will be at most 2500000 function evaluations used.
DPF> ga_num_generations 27000             # maximum number of generations

The GA will run for at most 27000 generations.
DPF> ga_elitism 1                         # number of top individuals to survive to next generation

The 1 best will be preserved each GA generation.
DPF> ga_mutation_rate 0.02                # rate of gene mutation

The mutation rate is 0.020000.
DPF> ga_crossover_rate 0.8                # rate of crossover

The crossover rate is 0.800000.
DPF> ga_window_size 10                    # 

The GA's selection window is 10 generations.
DPF> ga_cauchy_alpha 0.0                  # Alpha parameter of Cauchy distribution

The alpha parameter (for the Cauchy distribution) is being set to 0.000000.
DPF> ga_cauchy_beta 1.0                   # Beta parameter Cauchy distribution

The beta parameter (for the Cauchy distribution) is being set to 1.000000.
DPF> set_ga                               # set the above parameters for GA or LGA

DPF> sw_max_its 300                       # iterations of Solis & Wets local search

Solis & Wets algorithms will perform at most 300 iterations.
DPF> sw_max_succ 4                        # consecutive successes before changing rho

Solis & Wets algorithms expand rho every 4 in a row successes.
DPF> sw_max_fail 4                        # consecutive failures before changing rho

Solis & Wets algorithms contract rho every 4 in a row failures.
DPF> sw_rho 1.0                           # size of local search space to sample

rho is set to 1.000000.
DPF> sw_lb_rho 0.01                       # lower bound on rho

rho will never get smaller than 0.010000.
DPF> ls_search_freq 0.06                  # probability of performing local search on individual

Local search will be performed with frequency 0.060000.
DPF> set_psw1                             # set the above pseudo-Solis & Wets parameters

Creating a new Local Search object using the pseudo-Solis-Wets algorithm (pSW1) with the current settings.

DPF> unbound_model bound                  # state of unbound ligand

DPF> ga_run 10                            # do this many hybrid GA-LS runs

centering ligand on specified point: -3.370 1.923 0.102
Furthest true ligand atom from "about" center is 5.948 Angstroms (maxrad).
Number of requested GA dockings = 10 runs
Unbound model to be used is 'same as bound' [AutoDock 4.2 default].

	BEGINNING GENETIC ALGORITHM DOCKING 1 of 10
Run: 1 Seed: 554614340 368761524 [ Run 1 of 10 GA/GALS ]
Beginning LAMARCKIAN GENETIC ALGORITHM (LGA), with a maximum of 2500000 energy evaluations.

Final-Value: -9.090


	FINAL GENETIC ALGORITHM DOCKED STATE
	_______________________________________________


Detailed state:  trans 40.675 53.114 82.191 quatxyzw 0.101054 0.143592 0.961312 -0.212246 center -3.370 1.923 0.102 ntor 2 164.1321 -158.0482
State:	 40.675  53.114  82.191   0.103  0.147  0.984 -155.492    164.13 -158.05

DOCKED: MODEL        1
DOCKED: USER    Run = 1
DOCKED: USER    DPF = C:/Users/lam16/Documents/Cours/2025/projet-long/martini_to_allatom/docking/ADT_TM/indatraline/open_tm.dpf
DOCKED: USER  
DOCKED: USER    Estimated Free Energy of Binding    =   -8.12 kcal/mol  [=(1)+(2)+(3)-(4)]
DOCKED: USER    Estimated Inhibition Constant, Ki   =    1.12 uM (micromolar)  [Temperature = 298.15 K]
DOCKED: USER    
DOCKED: USER    (1) Final Intermolecular Energy     =   -8.71 kcal/mol
DOCKED: USER        vdW + Hbond + desolv Energy     =   -6.42 kcal/mol
DOCKED: USER        Electrostatic Energy            =   -2.29 kcal/mol
DOCKED: USER    (2) Final Total Internal Energy     =   -0.38 kcal/mol
DOCKED: USER    (3) Torsional Free Energy           =   +0.60 kcal/mol
DOCKED: USER    (4) Unbound System's Energy  [=(2)] =   -0.38 kcal/mol
DOCKED: USER    
DOCKED: USER    
DOCKED: USER    NEWDPF move indatraline.pdbqt
DOCKED: USER    NEWDPF about -3.370000 1.923000 0.102000
DOCKED: USER    NEWDPF tran0 40.675272 53.114312 82.190640
DOCKED: USER    NEWDPF quaternion0 0.101054 0.143592 0.961312 -0.212246
DOCKED: USER    NEWDPF axisangle0 0.103410 0.146940 0.983725 -155.491994
DOCKED: USER    NEWDPF quat0 0.103410 0.146940 0.983725 -155.491994
DOCKED: USER    NEWDPF dihe0 164.13 -158.05 
DOCKED: USER  keepresnum = 1 
DOCKED: USER  
DOCKED: REMARK  2 active torsions:
DOCKED: REMARK  status: ('A' for Active; 'I' for Inactive)
DOCKED: REMARK    1  A    between atoms: C_5  and  N_3 
DOCKED: REMARK    2  A    between atoms: C_4  and  C_9 
DOCKED: USER                              x       y       z     vdW  Elec       q    Type
DOCKED: USER                           _______ _______ _______ _____ _____    ______ ____
DOCKED: ROOT
DOCKED: ATOM      1  C   UNL d   1      41.214  53.294  81.827 -0.29 -0.05    +0.046 C 
DOCKED: ATOM      2  C   UNL d   1      41.289  50.869  81.304 -0.30 -0.30    +0.204 C 
DOCKED: ATOM      3  C   UNL d   1      40.743  52.227  80.812 -0.33 -0.05    +0.043 C 
DOCKED: ATOM      4  C   UNL d   1      41.241  52.484  83.096 -0.32 +0.02    -0.021 A 
DOCKED: ATOM      5  C   UNL d   1      41.298  51.111  82.798 -0.39 -0.00    +0.002 A 
DOCKED: ATOM      6  C   UNL d   1      41.301  52.930  84.410 -0.33 +0.00    -0.004 A 
DOCKED: ATOM      7  C   UNL d   1      41.391  50.167  83.811 -0.47 +0.00    -0.003 A 
DOCKED: ATOM      8  C   UNL d   1      41.388  51.985  85.433 -0.19 +0.00    -0.000 A 
DOCKED: ATOM      9  C   UNL d   1      41.433  50.615  85.138 -0.48 +0.00    -0.000 A 
DOCKED: ENDROOT
DOCKED: BRANCH   1  10
DOCKED: ATOM     10  C   UNL d   1      40.331  54.525  81.829 -0.21 +0.02    -0.018 A 
DOCKED: ATOM     11  C   UNL d   1      40.682  55.692  81.127 -0.26 -0.01    +0.008 A 
DOCKED: ATOM     12  C   UNL d   1      39.875  56.834  81.181 -0.30 -0.09    +0.068 A 
DOCKED: ATOM     13 CL   UNL d   1      40.401  58.232  80.312 -0.48 +0.09    -0.082 Cl
DOCKED: ATOM     14  C   UNL d   1      38.695  56.819  81.931 -0.35 -0.12    +0.068 A 
DOCKED: ATOM     15 CL   UNL d   1      37.653  58.191  82.051 -0.69 +0.17    -0.082 Cl
DOCKED: ATOM     16  C   UNL d   1      38.328  55.659  82.618 -0.30 -0.02    +0.012 A 
DOCKED: ATOM     17  C   UNL d   1      39.140  54.523  82.568 -0.37 +0.00    -0.003 A 
DOCKED: ENDBRANCH   1  10
DOCKED: BRANCH   2  18
DOCKED: ATOM     18  N   UNL d   1      42.639  50.562  80.829 +0.03 +0.09    -0.041 N 
DOCKED: ATOM     19  C   UNL d   1      43.673  50.951  81.780 -0.17 -0.34    +0.242 C 
DOCKED: ATOM     20  H   UNL d   1      42.708  49.558  80.666 +0.01 -0.80    +0.279 HD
DOCKED: ATOM     21  H   UNL d   1      42.794  51.096  79.973 -0.23 -0.91    +0.279 HD
DOCKED: ENDBRANCH   2  18
DOCKED: TORSDOF 2
DOCKED: TER
DOCKED: ENDMDL
________________________________________________________________________________


	BEGINNING GENETIC ALGORITHM DOCKING 2 of 10
Run: 2 Seed: 299389041 407045495 [ Run 2 of 10 GA/GALS ]
Beginning LAMARCKIAN GENETIC ALGORITHM (LGA), with a maximum of 2500000 energy evaluations.

Final-Value: -7.706


	FINAL GENETIC ALGORITHM DOCKED STATE
	_______________________________________________


Detailed state:  trans 62.396 29.265 51.064 quatxyzw 0.606303 0.264054 0.597694 0.453248 center -3.370 1.923 0.102 ntor 2 151.0002 -175.3653
State:	 62.396  29.265  51.064   0.680  0.296  0.671 126.095    151.00 -175.37

DOCKED: MODEL        2
DOCKED: USER    Run = 2
DOCKED: USER    DPF = C:/Users/lam16/Documents/Cours/2025/projet-long/martini_to_allatom/docking/ADT_TM/indatraline/open_tm.dpf
DOCKED: USER  
DOCKED: USER    Estimated Free Energy of Binding    =   -6.70 kcal/mol  [=(1)+(2)+(3)-(4)]
DOCKED: USER    Estimated Inhibition Constant, Ki   =   12.28 uM (micromolar)  [Temperature = 298.15 K]
DOCKED: USER    
DOCKED: USER    (1) Final Intermolecular Energy     =   -7.30 kcal/mol
DOCKED: USER        vdW + Hbond + desolv Energy     =   -5.18 kcal/mol
DOCKED: USER        Electrostatic Energy            =   -2.12 kcal/mol
DOCKED: USER    (2) Final Total Internal Energy     =   -0.41 kcal/mol
DOCKED: USER    (3) Torsional Free Energy           =   +0.60 kcal/mol
DOCKED: USER    (4) Unbound System's Energy  [=(2)] =   -0.41 kcal/mol
DOCKED: USER    
DOCKED: USER    
DOCKED: USER    NEWDPF move indatraline.pdbqt
DOCKED: USER    NEWDPF about -3.370000 1.923000 0.102000
DOCKED: USER    NEWDPF tran0 62.395841 29.265112 51.063740
DOCKED: USER    NEWDPF quaternion0 0.606303 0.264054 0.597694 0.453248
DOCKED: USER    NEWDPF axisangle0 0.680181 0.296230 0.670523 126.095435
DOCKED: USER    NEWDPF quat0 0.680181 0.296230 0.670523 126.095435
DOCKED: USER    NEWDPF dihe0 151.00 -175.37 
DOCKED: USER  keepresnum = 1 
DOCKED: USER  
DOCKED: REMARK  2 active torsions:
DOCKED: REMARK  status: ('A' for Active; 'I' for Inactive)
DOCKED: REMARK    1  A    between atoms: C_5  and  N_3 
DOCKED: REMARK    2  A    between atoms: C_4  and  C_9 
DOCKED: USER                              x       y       z     vdW  Elec       q    Type
DOCKED: USER                           _______ _______ _______ _____ _____    ______ ____
DOCKED: ROOT
DOCKED: ATOM      1  C   UNL d   1      61.841  29.438  50.722 -0.19 -0.04    +0.046 C 
DOCKED: ATOM      2  C   UNL d   1      62.810  27.947  48.991 -0.17 -0.28    +0.204 C 
DOCKED: ATOM      3  C   UNL d   1      61.847  27.985  50.197 -0.12 -0.04    +0.043 C 
DOCKED: ATOM      4  C   UNL d   1      63.247  29.864  50.390 -0.11 +0.02    -0.021 A 
DOCKED: ATOM      5  C   UNL d   1      63.790  29.027  49.400 -0.09 -0.00    +0.002 A 
DOCKED: ATOM      6  C   UNL d   1      63.957  30.960  50.863 -0.16 +0.00    -0.004 A 
DOCKED: ATOM      7  C   UNL d   1      65.058  29.261  48.887 -0.05 +0.00    -0.003 A 
DOCKED: ATOM      8  C   UNL d   1      65.236  31.196  50.357 -0.13 +0.00    -0.000 A 
DOCKED: ATOM      9  C   UNL d   1      65.783  30.355  49.377 -0.07 +0.00    -0.000 A 
DOCKED: ENDROOT
DOCKED: BRANCH   1  10
DOCKED: ATOM     10  C   UNL d   1      61.433  29.531  52.178 -0.19 +0.01    -0.018 A 
DOCKED: ATOM     11  C   UNL d   1      60.262  30.198  52.580 -0.23 -0.01    +0.008 A 
DOCKED: ATOM     12  C   UNL d   1      59.928  30.312  53.934 -0.35 -0.05    +0.068 A 
DOCKED: ATOM     13 CL   UNL d   1      58.486  31.175  54.337 -0.66 +0.06    -0.082 Cl
DOCKED: ATOM     14  C   UNL d   1      60.758  29.746  54.907 -0.35 -0.05    +0.068 A 
DOCKED: ATOM     15 CL   UNL d   1      60.416  29.852  56.596 -0.65 +0.06    -0.082 Cl
DOCKED: ATOM     16  C   UNL d   1      61.915  29.066  54.517 -0.30 -0.01    +0.012 A 
DOCKED: ATOM     17  C   UNL d   1      62.249  28.961  53.164 -0.21 +0.00    -0.003 A 
DOCKED: ENDBRANCH   1  10
DOCKED: BRANCH   2  18
DOCKED: ATOM     18  N   UNL d   1      62.180  28.287  47.714 -0.22 +0.08    -0.041 N 
DOCKED: ATOM     19  C   UNL d   1      62.056  29.724  47.511 -0.13 -0.37    +0.242 C 
DOCKED: ATOM     20  H   UNL d   1      62.745  27.898  46.958 -0.33 -0.88    +0.279 HD
DOCKED: ATOM     21  H   UNL d   1      61.238  27.895  47.722 -0.45 -0.64    +0.279 HD
DOCKED: ENDBRANCH   2  18
DOCKED: TORSDOF 2
DOCKED: TER
DOCKED: ENDMDL
________________________________________________________________________________


	BEGINNING GENETIC ALGORITHM DOCKING 3 of 10
Run: 3 Seed: 985566579 516146361 [ Run 3 of 10 GA/GALS ]
Beginning LAMARCKIAN GENETIC ALGORITHM (LGA), with a maximum of 2500000 energy evaluations.

Final-Value: -9.152


	FINAL GENETIC ALGORITHM DOCKED STATE
	_______________________________________________


Detailed state:  trans 42.808 51.023 62.667 quatxyzw 0.660514 0.289848 -0.254774 -0.644049 center -3.370 1.923 0.102 ntor 2 -81.2017 -156.7116
State:	 42.808  51.023  62.667   0.863  0.379 -0.333 -99.811    -81.20 -156.71

DOCKED: MODEL        3
DOCKED: USER    Run = 3
DOCKED: USER    DPF = C:/Users/lam16/Documents/Cours/2025/projet-long/martini_to_allatom/docking/ADT_TM/indatraline/open_tm.dpf
DOCKED: USER  
DOCKED: USER    Estimated Free Energy of Binding    =   -8.10 kcal/mol  [=(1)+(2)+(3)-(4)]
DOCKED: USER    Estimated Inhibition Constant, Ki   =    1.15 uM (micromolar)  [Temperature = 298.15 K]
DOCKED: USER    
DOCKED: USER    (1) Final Intermolecular Energy     =   -8.70 kcal/mol
DOCKED: USER        vdW + Hbond + desolv Energy     =   -7.50 kcal/mol
DOCKED: USER        Electrostatic Energy            =   -1.20 kcal/mol
DOCKED: USER    (2) Final Total Internal Energy     =   -0.45 kcal/mol
DOCKED: USER    (3) Torsional Free Energy           =   +0.60 kcal/mol
DOCKED: USER    (4) Unbound System's Energy  [=(2)] =   -0.45 kcal/mol
DOCKED: USER    
DOCKED: USER    
DOCKED: USER    NEWDPF move indatraline.pdbqt
DOCKED: USER    NEWDPF about -3.370000 1.923000 0.102000
DOCKED: USER    NEWDPF tran0 42.807595 51.023246 62.666634
DOCKED: USER    NEWDPF quaternion0 0.660514 0.289848 -0.254774 -0.644049
DOCKED: USER    NEWDPF axisangle0 0.863435 0.378894 -0.333045 -99.811124
DOCKED: USER    NEWDPF quat0 0.863435 0.378894 -0.333045 -99.811124
DOCKED: USER    NEWDPF dihe0 -81.20 -156.71 
DOCKED: USER  keepresnum = 1 
DOCKED: USER  
DOCKED: REMARK  2 active torsions:
DOCKED: REMARK  status: ('A' for Active; 'I' for Inactive)
DOCKED: REMARK    1  A    between atoms: C_5  and  N_3 
DOCKED: REMARK    2  A    between atoms: C_4  and  C_9 
DOCKED: USER                              x       y       z     vdW  Elec       q    Type
DOCKED: USER                           _______ _______ _______ _____ _____    ______ ____
DOCKED: ROOT
DOCKED: ATOM      1  C   UNL d   1      42.148  51.162  62.657 -0.38 -0.05    +0.046 C 
DOCKED: ATOM      2  C   UNL d   1      42.628  52.127  64.893 -0.29 -0.24    +0.204 C 
DOCKED: ATOM      3  C   UNL d   1      42.526  52.469  63.390 -0.28 -0.06    +0.043 C 
DOCKED: ATOM      4  C   UNL d   1      42.819  50.140  63.537 -0.34 +0.02    -0.021 A 
DOCKED: ATOM      5  C   UNL d   1      43.078  50.684  64.807 -0.33 -0.00    +0.002 A 
DOCKED: ATOM      6  C   UNL d   1      43.098  48.807  63.263 -0.39 +0.00    -0.004 A 
DOCKED: ATOM      7  C   UNL d   1      43.640  49.909  65.812 -0.32 +0.00    -0.003 A 
DOCKED: ATOM      8  C   UNL d   1      43.669  48.025  64.267 -0.43 +0.00    -0.000 A 
DOCKED: ATOM      9  C   UNL d   1      43.939  48.569  65.531 -0.39 +0.00    -0.000 A 
DOCKED: ENDROOT
DOCKED: BRANCH   1  10
DOCKED: ATOM     10  C   UNL d   1      42.558  51.172  61.199 -0.37 +0.02    -0.018 A 
DOCKED: ATOM     11  C   UNL d   1      41.652  51.504  60.176 -0.34 -0.01    +0.008 A 
DOCKED: ATOM     12  C   UNL d   1      42.039  51.462  58.831 -0.47 -0.06    +0.068 A 
DOCKED: ATOM     13 CL   UNL d   1      40.851  51.857  57.640 -0.83 +0.07    -0.082 Cl
DOCKED: ATOM     14  C   UNL d   1      43.346  51.097  58.493 -0.38 -0.06    +0.068 A 
DOCKED: ATOM     15 CL   UNL d   1      43.894  51.015  56.857 -0.60 +0.06    -0.082 Cl
DOCKED: ATOM     16  C   UNL d   1      44.258  50.782  59.503 -0.37 -0.01    +0.012 A 
DOCKED: ATOM     17  C   UNL d   1      43.866  50.818  60.844 -0.33 +0.00    -0.003 A 
DOCKED: ENDBRANCH   1  10
DOCKED: BRANCH   2  18
DOCKED: ATOM     18  N   UNL d   1      41.358  52.223  65.613 -0.42 +0.05    -0.041 N 
DOCKED: ATOM     19  C   UNL d   1      41.531  52.571  67.017 -0.31 -0.24    +0.242 C 
DOCKED: ATOM     20  H   UNL d   1      40.784  52.939  65.168 -0.11 -0.39    +0.279 HD
DOCKED: ATOM     21  H   UNL d   1      40.913  51.306  65.576 +0.17 -0.29    +0.279 HD
DOCKED: ENDBRANCH   2  18
DOCKED: TORSDOF 2
DOCKED: TER
DOCKED: ENDMDL
________________________________________________________________________________


	BEGINNING GENETIC ALGORITHM DOCKING 4 of 10
Run: 4 Seed: 1398882509 17851922 [ Run 4 of 10 GA/GALS ]
Beginning LAMARCKIAN GENETIC ALGORITHM (LGA), with a maximum of 2500000 energy evaluations.

Final-Value: -9.699


	FINAL GENETIC ALGORITHM DOCKED STATE
	_______________________________________________


Detailed state:  trans 45.497 35.466 56.940 quatxyzw 0.272480 0.894427 0.120106 0.333662 center -3.370 1.923 0.102 ntor 2 150.2001 -48.7632
State:	 45.497  35.466  56.940   0.289  0.949  0.127 141.018    150.20  -48.76

DOCKED: MODEL        4
DOCKED: USER    Run = 4
DOCKED: USER    DPF = C:/Users/lam16/Documents/Cours/2025/projet-long/martini_to_allatom/docking/ADT_TM/indatraline/open_tm.dpf
DOCKED: USER  
DOCKED: USER    Estimated Free Energy of Binding    =   -8.70 kcal/mol  [=(1)+(2)+(3)-(4)]
DOCKED: USER    Estimated Inhibition Constant, Ki   =  420.74 nM (nanomolar)  [Temperature = 298.15 K]
DOCKED: USER    
DOCKED: USER    (1) Final Intermolecular Energy     =   -9.29 kcal/mol
DOCKED: USER        vdW + Hbond + desolv Energy     =   -6.82 kcal/mol
DOCKED: USER        Electrostatic Energy            =   -2.48 kcal/mol
DOCKED: USER    (2) Final Total Internal Energy     =   -0.40 kcal/mol
DOCKED: USER    (3) Torsional Free Energy           =   +0.60 kcal/mol
DOCKED: USER    (4) Unbound System's Energy  [=(2)] =   -0.40 kcal/mol
DOCKED: USER    
DOCKED: USER    
DOCKED: USER    NEWDPF move indatraline.pdbqt
DOCKED: USER    NEWDPF about -3.370000 1.923000 0.102000
DOCKED: USER    NEWDPF tran0 45.497210 35.466272 56.939924
DOCKED: USER    NEWDPF quaternion0 0.272480 0.894427 0.120106 0.333662
DOCKED: USER    NEWDPF axisangle0 0.289044 0.948800 0.127408 141.017620
DOCKED: USER    NEWDPF quat0 0.289044 0.948800 0.127408 141.017620
DOCKED: USER    NEWDPF dihe0 150.20 -48.76 
DOCKED: USER  keepresnum = 1 
DOCKED: USER  
DOCKED: REMARK  2 active torsions:
DOCKED: REMARK  status: ('A' for Active; 'I' for Inactive)
DOCKED: REMARK    1  A    between atoms: C_5  and  N_3 
DOCKED: REMARK    2  A    between atoms: C_4  and  C_9 
DOCKED: USER                              x       y       z     vdW  Elec       q    Type
DOCKED: USER                           _______ _______ _______ _____ _____    ______ ____
DOCKED: ROOT
DOCKED: ATOM      1  C   UNL d   1      45.595  34.828  56.748 -0.27 -0.07    +0.046 C 
DOCKED: ATOM      2  C   UNL d   1      47.984  35.501  56.795 -0.16 -0.38    +0.204 C 
DOCKED: ATOM      3  C   UNL d   1      46.856  34.872  57.641 -0.27 -0.07    +0.043 C 
DOCKED: ATOM      4  C   UNL d   1      45.814  36.046  55.891 -0.30 +0.03    -0.021 A 
DOCKED: ATOM      5  C   UNL d   1      47.169  36.418  55.907 -0.35 -0.00    +0.002 A 
DOCKED: ATOM      6  C   UNL d   1      44.901  36.719  55.089 -0.40 +0.01    -0.004 A 
DOCKED: ATOM      7  C   UNL d   1      47.625  37.482  55.140 -0.32 +0.00    -0.003 A 
DOCKED: ATOM      8  C   UNL d   1      45.351  37.793  54.321 -0.45 +0.00    -0.000 A 
DOCKED: ATOM      9  C   UNL d   1      46.701  38.173  54.345 -0.46 +0.00    -0.000 A 
DOCKED: ENDROOT
DOCKED: BRANCH   1  10
DOCKED: ATOM     10  C   UNL d   1      44.312  34.788  57.553 -0.29 +0.02    -0.018 A 
DOCKED: ATOM     11  C   UNL d   1      44.300  35.013  58.941 -0.27 -0.01    +0.008 A 
DOCKED: ATOM     12  C   UNL d   1      43.110  34.926  59.673 -0.24 -0.07    +0.068 A 
DOCKED: ATOM     13 CL   UNL d   1      43.195  35.187  61.379 -0.40 +0.07    -0.082 Cl
DOCKED: ATOM     14  C   UNL d   1      41.911  34.624  59.020 -0.28 -0.08    +0.068 A 
DOCKED: ATOM     15 CL   UNL d   1      40.406  34.492  59.857 -0.51 +0.10    -0.082 Cl
DOCKED: ATOM     16  C   UNL d   1      41.909  34.416  57.639 -0.41 -0.01    +0.012 A 
DOCKED: ATOM     17  C   UNL d   1      43.101  34.496  56.913 -0.41 +0.00    -0.003 A 
DOCKED: ENDBRANCH   1  10
DOCKED: BRANCH   2  18
DOCKED: ATOM     18  N   UNL d   1      48.729  34.537  55.984 -0.13 +0.10    -0.041 N 
DOCKED: ATOM     19  C   UNL d   1      48.039  34.184  54.750 -0.18 -0.51    +0.242 C 
DOCKED: ATOM     20  H   UNL d   1      49.635  34.941  55.747 -0.35 -0.78    +0.279 HD
DOCKED: ATOM     21  H   UNL d   1      48.829  33.683  56.535 -0.34 -0.83    +0.279 HD
DOCKED: ENDBRANCH   2  18
DOCKED: TORSDOF 2
DOCKED: TER
DOCKED: ENDMDL
________________________________________________________________________________


	BEGINNING GENETIC ALGORITHM DOCKING 5 of 10
Run: 5 Seed: 2119789312 185852816 [ Run 5 of 10 GA/GALS ]
Beginning LAMARCKIAN GENETIC ALGORITHM (LGA), with a maximum of 2500000 energy evaluations.

Final-Value: -8.780


	FINAL GENETIC ALGORITHM DOCKED STATE
	_______________________________________________


Detailed state:  trans 63.641 52.836 121.760 quatxyzw -0.771492 0.597050 0.141849 -0.167960 center -3.370 1.923 0.102 ntor 2 -39.0959 -179.2354
State:	 63.641  52.836 121.760  -0.783  0.606  0.144 -160.662    -39.10 -179.24

DOCKED: MODEL        5
DOCKED: USER    Run = 5
DOCKED: USER    DPF = C:/Users/lam16/Documents/Cours/2025/projet-long/martini_to_allatom/docking/ADT_TM/indatraline/open_tm.dpf
DOCKED: USER  
DOCKED: USER    Estimated Free Energy of Binding    =   -7.71 kcal/mol  [=(1)+(2)+(3)-(4)]
DOCKED: USER    Estimated Inhibition Constant, Ki   =    2.23 uM (micromolar)  [Temperature = 298.15 K]
DOCKED: USER    
DOCKED: USER    (1) Final Intermolecular Energy     =   -8.31 kcal/mol
DOCKED: USER        vdW + Hbond + desolv Energy     =   -6.55 kcal/mol
DOCKED: USER        Electrostatic Energy            =   -1.76 kcal/mol
DOCKED: USER    (2) Final Total Internal Energy     =   -0.47 kcal/mol
DOCKED: USER    (3) Torsional Free Energy           =   +0.60 kcal/mol
DOCKED: USER    (4) Unbound System's Energy  [=(2)] =   -0.47 kcal/mol
DOCKED: USER    
DOCKED: USER    
DOCKED: USER    NEWDPF move indatraline.pdbqt
DOCKED: USER    NEWDPF about -3.370000 1.923000 0.102000
DOCKED: USER    NEWDPF tran0 63.640912 52.836164 121.760229
DOCKED: USER    NEWDPF quaternion0 -0.771492 0.597050 0.141849 -0.167960
DOCKED: USER    NEWDPF axisangle0 -0.782610 0.605654 0.143893 -160.661514
DOCKED: USER    NEWDPF quat0 -0.782610 0.605654 0.143893 -160.661514
DOCKED: USER    NEWDPF dihe0 -39.10 -179.24 
DOCKED: USER  keepresnum = 1 
DOCKED: USER  
DOCKED: REMARK  2 active torsions:
DOCKED: REMARK  status: ('A' for Active; 'I' for Inactive)
DOCKED: REMARK    1  A    between atoms: C_5  and  N_3 
DOCKED: REMARK    2  A    between atoms: C_4  and  C_9 
DOCKED: USER                              x       y       z     vdW  Elec       q    Type
DOCKED: USER                           _______ _______ _______ _____ _____    ______ ____
DOCKED: ROOT
DOCKED: ATOM      1  C   UNL d   1      63.994  53.269 122.138 -0.37 -0.06    +0.046 C 
DOCKED: ATOM      2  C   UNL d   1      61.866  53.429 123.405 -0.22 -0.26    +0.204 C 
DOCKED: ATOM      3  C   UNL d   1      63.217  52.682 123.338 -0.29 -0.06    +0.043 C 
DOCKED: ATOM      4  C   UNL d   1      62.860  53.631 121.215 -0.33 +0.02    -0.021 A 
DOCKED: ATOM      5  C   UNL d   1      61.658  53.734 121.937 -0.31 -0.00    +0.002 A 
DOCKED: ATOM      6  C   UNL d   1      62.905  53.931 119.860 -0.49 +0.00    -0.004 A 
DOCKED: ATOM      7  C   UNL d   1      60.482  54.117 121.307 -0.34 +0.00    -0.003 A 
DOCKED: ATOM      8  C   UNL d   1      61.724  54.310 119.220 -0.28 +0.00    -0.000 A 
DOCKED: ATOM      9  C   UNL d   1      60.522  54.402 119.936 -0.43 +0.00    -0.000 A 
DOCKED: ENDROOT
DOCKED: BRANCH   1  10
DOCKED: ATOM     10  C   UNL d   1      65.031  52.309 121.590 -0.35 +0.02    -0.018 A 
DOCKED: ATOM     11  C   UNL d   1      66.399  52.632 121.561 -0.40 -0.01    +0.008 A 
DOCKED: ATOM     12  C   UNL d   1      67.335  51.750 121.008 -0.24 -0.04    +0.068 A 
DOCKED: ATOM     13 CL   UNL d   1      68.991  52.244 120.988 -0.44 +0.02    -0.082 Cl
DOCKED: ATOM     14  C   UNL d   1      66.913  50.523 120.487 -0.19 -0.04    +0.068 A 
DOCKED: ATOM     15 CL   UNL d   1      68.007  49.387 119.782 -0.23 +0.04    -0.082 Cl
DOCKED: ATOM     16  C   UNL d   1      65.558  50.185 120.527 -0.33 -0.01    +0.012 A 
DOCKED: ATOM     17  C   UNL d   1      64.626  51.072 121.073 -0.33 +0.00    -0.003 A 
DOCKED: ENDBRANCH   1  10
DOCKED: BRANCH   2  18
DOCKED: ATOM     18  N   UNL d   1      61.909  54.668 124.182 -0.37 +0.06    -0.041 N 
DOCKED: ATOM     19  C   UNL d   1      61.201  54.563 125.451 -0.32 -0.25    +0.242 C 
DOCKED: ATOM     20  H   UNL d   1      62.884  54.902 124.371 -0.34 -0.73    +0.279 HD
DOCKED: ATOM     21  H   UNL d   1      61.447  55.393 123.632 +0.06 -0.48    +0.279 HD
DOCKED: ENDBRANCH   2  18
DOCKED: TORSDOF 2
DOCKED: TER
DOCKED: ENDMDL
________________________________________________________________________________


	BEGINNING GENETIC ALGORITHM DOCKING 6 of 10
Run: 6 Seed: 1213118485 570178338 [ Run 6 of 10 GA/GALS ]
Beginning LAMARCKIAN GENETIC ALGORITHM (LGA), with a maximum of 2500000 energy evaluations.

Final-Value: -7.676


	FINAL GENETIC ALGORITHM DOCKED STATE
	_______________________________________________


Detailed state:  trans 61.321 29.482 56.183 quatxyzw 0.591932 0.671787 -0.204245 -0.395731 center -3.370 1.923 0.102 ntor 2 2.9308 28.5352
State:	 61.321  29.482  56.183   0.645  0.732 -0.222 -133.377      2.93   28.54

DOCKED: MODEL        6
DOCKED: USER    Run = 6
DOCKED: USER    DPF = C:/Users/lam16/Documents/Cours/2025/projet-long/martini_to_allatom/docking/ADT_TM/indatraline/open_tm.dpf
DOCKED: USER  
DOCKED: USER    Estimated Free Energy of Binding    =   -6.60 kcal/mol  [=(1)+(2)+(3)-(4)]
DOCKED: USER    Estimated Inhibition Constant, Ki   =   14.55 uM (micromolar)  [Temperature = 298.15 K]
DOCKED: USER    
DOCKED: USER    (1) Final Intermolecular Energy     =   -7.20 kcal/mol
DOCKED: USER        vdW + Hbond + desolv Energy     =   -6.48 kcal/mol
DOCKED: USER        Electrostatic Energy            =   -0.72 kcal/mol
DOCKED: USER    (2) Final Total Internal Energy     =   -0.48 kcal/mol
DOCKED: USER    (3) Torsional Free Energy           =   +0.60 kcal/mol
DOCKED: USER    (4) Unbound System's Energy  [=(2)] =   -0.48 kcal/mol
DOCKED: USER    
DOCKED: USER    
DOCKED: USER    NEWDPF move indatraline.pdbqt
DOCKED: USER    NEWDPF about -3.370000 1.923000 0.102000
DOCKED: USER    NEWDPF tran0 61.321116 29.481876 56.182752
DOCKED: USER    NEWDPF quaternion0 0.591932 0.671787 -0.204245 -0.395731
DOCKED: USER    NEWDPF axisangle0 0.644548 0.731502 -0.222400 -133.376844
DOCKED: USER    NEWDPF quat0 0.644548 0.731502 -0.222400 -133.376844
DOCKED: USER    NEWDPF dihe0 2.93 28.54 
DOCKED: USER  keepresnum = 1 
DOCKED: USER  
DOCKED: REMARK  2 active torsions:
DOCKED: REMARK  status: ('A' for Active; 'I' for Inactive)
DOCKED: REMARK    1  A    between atoms: C_5  and  N_3 
DOCKED: REMARK    2  A    between atoms: C_4  and  C_9 
DOCKED: USER                              x       y       z     vdW  Elec       q    Type
DOCKED: USER                           _______ _______ _______ _____ _____    ______ ____
DOCKED: ROOT
DOCKED: ATOM      1  C   UNL d   1      60.812  29.215  56.535 -0.35 -0.03    +0.046 C 
DOCKED: ATOM      2  C   UNL d   1      62.324  29.639  58.458 -0.26 -0.15    +0.204 C 
DOCKED: ATOM      3  C   UNL d   1      61.174  30.249  57.626 -0.43 -0.03    +0.043 C 
DOCKED: ATOM      4  C   UNL d   1      62.153  28.570  56.301 -0.36 +0.01    -0.021 A 
DOCKED: ATOM      5  C   UNL d   1      63.003  28.800  57.397 -0.26 -0.00    +0.002 A 
DOCKED: ATOM      6  C   UNL d   1      62.558  27.768  55.242 -0.32 +0.00    -0.004 A 
DOCKED: ATOM      7  C   UNL d   1      64.277  28.250  57.436 -0.15 +0.00    -0.003 A 
DOCKED: ATOM      8  C   UNL d   1      63.840  27.218  55.272 -0.22 +0.00    -0.000 A 
DOCKED: ATOM      9  C   UNL d   1      64.693  27.456  56.359 -0.12 +0.00    -0.000 A 
DOCKED: ENDROOT
DOCKED: BRANCH   1  10
DOCKED: ATOM     10  C   UNL d   1      60.147  29.848  55.330 -0.46 +0.01    -0.018 A 
DOCKED: ATOM     11  C   UNL d   1      60.893  30.356  54.252 -0.33 -0.01    +0.008 A 
DOCKED: ATOM     12  C   UNL d   1      60.261  30.980  53.170 -0.33 -0.05    +0.068 A 
DOCKED: ATOM     13 CL   UNL d   1      61.260  31.602  51.905 -0.42 +0.06    -0.082 Cl
DOCKED: ATOM     14  C   UNL d   1      58.868  31.091  53.147 -0.34 -0.05    +0.068 A 
DOCKED: ATOM     15 CL   UNL d   1      58.017  31.852  51.851 -0.45 +0.07    -0.082 Cl
DOCKED: ATOM     16  C   UNL d   1      58.115  30.574  54.205 -0.46 -0.01    +0.012 A 
DOCKED: ATOM     17  C   UNL d   1      58.751  29.959  55.287 -0.51 +0.00    -0.003 A 
DOCKED: ENDBRANCH   1  10
DOCKED: BRANCH   2  18
DOCKED: ATOM     18  N   UNL d   1      61.874  28.796  59.566 -0.34 +0.03    -0.041 N 
DOCKED: ATOM     19  C   UNL d   1      61.179  29.548  60.602 -0.33 -0.14    +0.242 C 
DOCKED: ATOM     20  H   UNL d   1      61.242  28.085  59.199 -0.06 -0.23    +0.279 HD
DOCKED: ATOM     21  H   UNL d   1      62.703  28.380  59.992 +0.04 -0.21    +0.279 HD
DOCKED: ENDBRANCH   2  18
DOCKED: TORSDOF 2
DOCKED: TER
DOCKED: ENDMDL
________________________________________________________________________________


	BEGINNING GENETIC ALGORITHM DOCKING 7 of 10
Run: 7 Seed: 1043649359 8948301 [ Run 7 of 10 GA/GALS ]
Beginning LAMARCKIAN GENETIC ALGORITHM (LGA), with a maximum of 2500000 energy evaluations.

Final-Value: -8.180


	FINAL GENETIC ALGORITHM DOCKED STATE
	_______________________________________________


Detailed state:  trans 40.509 33.740 60.025 quatxyzw 0.269093 0.224813 0.416855 -0.838618 center -3.370 1.923 0.102 ntor 2 -92.3177 56.2728
State:	 40.509  33.740  60.025   0.494  0.413  0.765 -66.011    -92.32   56.27

DOCKED: MODEL        7
DOCKED: USER    Run = 7
DOCKED: USER    DPF = C:/Users/lam16/Documents/Cours/2025/projet-long/martini_to_allatom/docking/ADT_TM/indatraline/open_tm.dpf
DOCKED: USER  
DOCKED: USER    Estimated Free Energy of Binding    =   -7.22 kcal/mol  [=(1)+(2)+(3)-(4)]
DOCKED: USER    Estimated Inhibition Constant, Ki   =    5.13 uM (micromolar)  [Temperature = 298.15 K]
DOCKED: USER    
DOCKED: USER    (1) Final Intermolecular Energy     =   -7.81 kcal/mol
DOCKED: USER        vdW + Hbond + desolv Energy     =   -6.00 kcal/mol
DOCKED: USER        Electrostatic Energy            =   -1.81 kcal/mol
DOCKED: USER    (2) Final Total Internal Energy     =   -0.37 kcal/mol
DOCKED: USER    (3) Torsional Free Energy           =   +0.60 kcal/mol
DOCKED: USER    (4) Unbound System's Energy  [=(2)] =   -0.37 kcal/mol
DOCKED: USER    
DOCKED: USER    
DOCKED: USER    NEWDPF move indatraline.pdbqt
DOCKED: USER    NEWDPF about -3.370000 1.923000 0.102000
DOCKED: USER    NEWDPF tran0 40.508615 33.740278 60.024728
DOCKED: USER    NEWDPF quaternion0 0.269093 0.224813 0.416855 -0.838618
DOCKED: USER    NEWDPF axisangle0 0.494003 0.412713 0.765264 -66.011052
DOCKED: USER    NEWDPF quat0 0.494003 0.412713 0.765264 -66.011052
DOCKED: USER    NEWDPF dihe0 -92.32 56.27 
DOCKED: USER  keepresnum = 1 
DOCKED: USER  
DOCKED: REMARK  2 active torsions:
DOCKED: REMARK  status: ('A' for Active; 'I' for Inactive)
DOCKED: REMARK    1  A    between atoms: C_5  and  N_3 
DOCKED: REMARK    2  A    between atoms: C_4  and  C_9 
DOCKED: USER                              x       y       z     vdW  Elec       q    Type
DOCKED: USER                           _______ _______ _______ _____ _____    ______ ____
DOCKED: ROOT
DOCKED: ATOM      1  C   UNL d   1      40.439  33.173  59.667 -0.32 -0.06    +0.046 C 
DOCKED: ATOM      2  C   UNL d   1      38.050  33.435  60.289 -0.34 -0.30    +0.204 C 
DOCKED: ATOM      3  C   UNL d   1      39.092  33.768  59.198 -0.38 -0.07    +0.043 C 
DOCKED: ATOM      4  C   UNL d   1      40.296  33.293  61.161 -0.16 +0.02    -0.021 A 
DOCKED: ATOM      5  C   UNL d   1      38.941  33.428  61.513 -0.23 -0.00    +0.002 A 
DOCKED: ATOM      6  C   UNL d   1      41.278  33.201  62.138 -0.08 +0.00    -0.004 A 
DOCKED: ATOM      7  C   UNL d   1      38.555  33.495  62.844 -0.19 +0.00    -0.003 A 
DOCKED: ATOM      8  C   UNL d   1      40.897  33.275  63.478 -0.07 +0.00    -0.000 A 
DOCKED: ATOM      9  C   UNL d   1      39.548  33.421  63.830 -0.13 +0.00    -0.000 A 
DOCKED: ENDROOT
DOCKED: BRANCH   1  10
DOCKED: ATOM     10  C   UNL d   1      41.632  33.870  59.044 -0.31 +0.02    -0.018 A 
DOCKED: ATOM     11  C   UNL d   1      42.557  34.592  59.819 -0.24 -0.01    +0.008 A 
DOCKED: ATOM     12  C   UNL d   1      43.626  35.268  59.218 -0.28 -0.07    +0.068 A 
DOCKED: ATOM     13 CL   UNL d   1      44.695  36.155  60.245 -0.52 +0.07    -0.082 Cl
DOCKED: ATOM     14  C   UNL d   1      43.790  35.217  57.831 -0.30 -0.08    +0.068 A 
DOCKED: ATOM     15 CL   UNL d   1      45.079  36.030  57.017 -0.43 +0.11    -0.082 Cl
DOCKED: ATOM     16  C   UNL d   1      42.886  34.488  57.053 -0.40 -0.01    +0.012 A 
DOCKED: ATOM     17  C   UNL d   1      41.816  33.821  57.656 -0.43 +0.00    -0.003 A 
DOCKED: ENDBRANCH   1  10
DOCKED: BRANCH   2  18
DOCKED: ATOM     18  N   UNL d   1      37.406  32.132  60.119 -0.37 +0.07    -0.041 N 
DOCKED: ATOM     19  C   UNL d   1      36.167  32.013  60.876 -0.32 -0.31    +0.242 C 
DOCKED: ATOM     20  H   UNL d   1      37.197  31.998  59.129 -0.32 -0.63    +0.279 HD
DOCKED: ATOM     21  H   UNL d   1      38.049  31.422  60.469 -0.18 -0.58    +0.279 HD
DOCKED: ENDBRANCH   2  18
DOCKED: TORSDOF 2
DOCKED: TER
DOCKED: ENDMDL
________________________________________________________________________________


	BEGINNING GENETIC ALGORITHM DOCKING 8 of 10
Run: 8 Seed: 2099250492 1497537815 [ Run 8 of 10 GA/GALS ]
Beginning LAMARCKIAN GENETIC ALGORITHM (LGA), with a maximum of 2500000 energy evaluations.

Final-Value: -8.803


	FINAL GENETIC ALGORITHM DOCKED STATE
	_______________________________________________


Detailed state:  trans 44.539 51.907 72.807 quatxyzw 0.764498 0.521969 -0.109175 0.362176 center -3.370 1.923 0.102 ntor 2 -87.6788 87.8160
State:	 44.539  51.907  72.807   0.820  0.560 -0.117 137.532    -87.68   87.82

DOCKED: MODEL        8
DOCKED: USER    Run = 8
DOCKED: USER    DPF = C:/Users/lam16/Documents/Cours/2025/projet-long/martini_to_allatom/docking/ADT_TM/indatraline/open_tm.dpf
DOCKED: USER  
DOCKED: USER    Estimated Free Energy of Binding    =   -7.85 kcal/mol  [=(1)+(2)+(3)-(4)]
DOCKED: USER    Estimated Inhibition Constant, Ki   =    1.77 uM (micromolar)  [Temperature = 298.15 K]
DOCKED: USER    
DOCKED: USER    (1) Final Intermolecular Energy     =   -8.44 kcal/mol
DOCKED: USER        vdW + Hbond + desolv Energy     =   -7.62 kcal/mol
DOCKED: USER        Electrostatic Energy            =   -0.82 kcal/mol
DOCKED: USER    (2) Final Total Internal Energy     =   -0.36 kcal/mol
DOCKED: USER    (3) Torsional Free Energy           =   +0.60 kcal/mol
DOCKED: USER    (4) Unbound System's Energy  [=(2)] =   -0.36 kcal/mol
DOCKED: USER    
DOCKED: USER    
DOCKED: USER    NEWDPF move indatraline.pdbqt
DOCKED: USER    NEWDPF about -3.370000 1.923000 0.102000
DOCKED: USER    NEWDPF tran0 44.538642 51.907032 72.806896
DOCKED: USER    NEWDPF quaternion0 0.764498 0.521969 -0.109175 0.362176
DOCKED: USER    NEWDPF axisangle0 0.820180 0.559987 -0.117127 137.532216
DOCKED: USER    NEWDPF quat0 0.820180 0.559987 -0.117127 137.532216
DOCKED: USER    NEWDPF dihe0 -87.68 87.82 
DOCKED: USER  keepresnum = 1 
DOCKED: USER  
DOCKED: REMARK  2 active torsions:
DOCKED: REMARK  status: ('A' for Active; 'I' for Inactive)
DOCKED: REMARK    1  A    between atoms: C_5  and  N_3 
DOCKED: REMARK    2  A    between atoms: C_4  and  C_9 
DOCKED: USER                              x       y       z     vdW  Elec       q    Type
DOCKED: USER                           _______ _______ _______ _____ _____    ______ ____
DOCKED: ROOT
DOCKED: ATOM      1  C   UNL d   1      44.091  51.534  73.146 -0.39 -0.04    +0.046 C 
DOCKED: ATOM      2  C   UNL d   1      45.514  49.659  72.357 -0.38 -0.15    +0.204 C 
DOCKED: ATOM      3  C   UNL d   1      45.294  50.642  73.528 -0.47 -0.03    +0.043 C 
DOCKED: ATOM      4  C   UNL d   1      44.240  51.582  71.648 -0.34 +0.02    -0.021 A 
DOCKED: ATOM      5  C   UNL d   1      45.035  50.513  71.201 -0.40 -0.00    +0.002 A 
DOCKED: ATOM      6  C   UNL d   1      43.647  52.453  70.744 -0.33 +0.00    -0.004 A 
DOCKED: ATOM      7  C   UNL d   1      45.265  50.314  69.847 -0.40 +0.00    -0.003 A 
DOCKED: ATOM      8  C   UNL d   1      43.880  52.263  69.381 -0.36 +0.00    -0.000 A 
DOCKED: ATOM      9  C   UNL d   1      44.682  51.203  68.935 -0.35 +0.00    -0.000 A 
DOCKED: ENDROOT
DOCKED: BRANCH   1  10
DOCKED: ATOM     10  C   UNL d   1      44.099  52.865  73.870 -0.26 +0.02    -0.018 A 
DOCKED: ATOM     11  C   UNL d   1      43.600  54.037  73.274 -0.30 -0.01    +0.008 A 
DOCKED: ATOM     12  C   UNL d   1      43.661  55.265  73.942 -0.32 -0.06    +0.068 A 
DOCKED: ATOM     13 CL   UNL d   1      43.051  56.658  73.121 -0.57 +0.09    -0.082 Cl
DOCKED: ATOM     14  C   UNL d   1      44.211  55.334  75.225 -0.34 -0.06    +0.068 A 
DOCKED: ATOM     15 CL   UNL d   1      44.327  56.813  76.109 -0.68 +0.07    -0.082 Cl
DOCKED: ATOM     16  C   UNL d   1      44.695  54.172  75.833 -0.35 -0.01    +0.012 A 
DOCKED: ATOM     17  C   UNL d   1      44.640  52.949  75.160 -0.38 +0.00    -0.003 A 
DOCKED: ENDBRANCH   1  10
DOCKED: BRANCH   2  18
DOCKED: ATOM     18  N   UNL d   1      44.719  48.434  72.450 -0.45 +0.03    -0.041 N 
DOCKED: ATOM     19  C   UNL d   1      45.290  47.332  71.685 -0.40 -0.18    +0.242 C 
DOCKED: ATOM     20  H   UNL d   1      44.662  48.155  73.429 -0.04 -0.23    +0.279 HD
DOCKED: ATOM     21  H   UNL d   1      43.798  48.634  72.059 -0.11 -0.28    +0.279 HD
DOCKED: ENDBRANCH   2  18
DOCKED: TORSDOF 2
DOCKED: TER
DOCKED: ENDMDL
________________________________________________________________________________


	BEGINNING GENETIC ALGORITHM DOCKING 9 of 10
Run: 9 Seed: 22940641 396982031 [ Run 9 of 10 GA/GALS ]
Beginning LAMARCKIAN GENETIC ALGORITHM (LGA), with a maximum of 2500000 energy evaluations.

Final-Value: -8.295


	FINAL GENETIC ALGORITHM DOCKED STATE
	_______________________________________________


Detailed state:  trans 60.706 53.049 80.021 quatxyzw 0.243676 0.829375 0.214213 -0.454831 center -3.370 1.923 0.102 ntor 2 154.9573 -28.1599
State:	 60.706  53.049  80.021   0.274  0.931  0.241 -125.892    154.96  -28.16

DOCKED: MODEL        9
DOCKED: USER    Run = 9
DOCKED: USER    DPF = C:/Users/lam16/Documents/Cours/2025/projet-long/martini_to_allatom/docking/ADT_TM/indatraline/open_tm.dpf
DOCKED: USER  
DOCKED: USER    Estimated Free Energy of Binding    =   -7.28 kcal/mol  [=(1)+(2)+(3)-(4)]
DOCKED: USER    Estimated Inhibition Constant, Ki   =    4.62 uM (micromolar)  [Temperature = 298.15 K]
DOCKED: USER    
DOCKED: USER    (1) Final Intermolecular Energy     =   -7.88 kcal/mol
DOCKED: USER        vdW + Hbond + desolv Energy     =   -5.72 kcal/mol
DOCKED: USER        Electrostatic Energy            =   -2.16 kcal/mol
DOCKED: USER    (2) Final Total Internal Energy     =   -0.42 kcal/mol
DOCKED: USER    (3) Torsional Free Energy           =   +0.60 kcal/mol
DOCKED: USER    (4) Unbound System's Energy  [=(2)] =   -0.42 kcal/mol
DOCKED: USER    
DOCKED: USER    
DOCKED: USER    NEWDPF move indatraline.pdbqt
DOCKED: USER    NEWDPF about -3.370000 1.923000 0.102000
DOCKED: USER    NEWDPF tran0 60.706418 53.048887 80.020870
DOCKED: USER    NEWDPF quaternion0 0.243676 0.829375 0.214213 -0.454831
DOCKED: USER    NEWDPF axisangle0 0.273616 0.931278 0.240533 -125.891910
DOCKED: USER    NEWDPF quat0 0.273616 0.931278 0.240533 -125.891910
DOCKED: USER    NEWDPF dihe0 154.96 -28.16 
DOCKED: USER  keepresnum = 1 
DOCKED: USER  
DOCKED: REMARK  2 active torsions:
DOCKED: REMARK  status: ('A' for Active; 'I' for Inactive)
DOCKED: REMARK    1  A    between atoms: C_5  and  N_3 
DOCKED: REMARK    2  A    between atoms: C_4  and  C_9 
DOCKED: USER                              x       y       z     vdW  Elec       q    Type
DOCKED: USER                           _______ _______ _______ _____ _____    ______ ____
DOCKED: ROOT
DOCKED: ATOM      1  C   UNL d   1      60.678  52.382  80.118 -0.22 -0.04    +0.046 C 
DOCKED: ATOM      2  C   UNL d   1      60.747  53.035  82.512 -0.21 -0.28    +0.204 C 
DOCKED: ATOM      3  C   UNL d   1      59.792  52.713  81.341 -0.32 -0.05    +0.043 C 
DOCKED: ATOM      4  C   UNL d   1      61.872  53.259  80.389 -0.14 +0.02    -0.021 A 
DOCKED: ATOM      5  C   UNL d   1      61.917  53.617  81.747 -0.14 -0.00    +0.002 A 
DOCKED: ATOM      6  C   UNL d   1      62.887  53.637  79.519 -0.11 +0.00    -0.004 A 
DOCKED: ATOM      7  C   UNL d   1      62.965  54.376  82.248 -0.09 +0.00    -0.003 A 
DOCKED: ATOM      8  C   UNL d   1      63.940  54.406  80.015 -0.07 +0.00    -0.000 A 
DOCKED: ATOM      9  C   UNL d   1      63.980  54.773  81.368 -0.06 +0.00    -0.000 A 
DOCKED: ENDROOT
DOCKED: BRANCH   1  10
DOCKED: ATOM     10  C   UNL d   1      59.960  52.605  78.802 -0.27 +0.01    -0.018 A 
DOCKED: ATOM     11  C   UNL d   1      58.976  53.598  78.652 -0.28 -0.01    +0.008 A 
DOCKED: ATOM     12  C   UNL d   1      58.291  53.755  77.442 -0.38 -0.05    +0.068 A 
DOCKED: ATOM     13 CL   UNL d   1      57.077  54.982  77.358 -0.82 +0.05    -0.082 Cl
DOCKED: ATOM     14  C   UNL d   1      58.594  52.926  76.357 -0.41 -0.05    +0.068 A 
DOCKED: ATOM     15 CL   UNL d   1      57.788  53.055  74.836 -0.88 +0.05    -0.082 Cl
DOCKED: ATOM     16  C   UNL d   1      59.582  51.947  76.490 -0.27 -0.01    +0.012 A 
DOCKED: ATOM     17  C   UNL d   1      60.258  51.788  77.703 -0.30 +0.00    -0.003 A 
DOCKED: ENDBRANCH   1  10
DOCKED: BRANCH   2  18
DOCKED: ATOM     18  N   UNL d   1      61.169  51.862  83.276 -0.04 +0.08    -0.041 N 
DOCKED: ATOM     19  C   UNL d   1      62.324  51.193  82.691 -0.10 -0.35    +0.242 C 
DOCKED: ATOM     20  H   UNL d   1      61.409  52.157  84.223 -0.17 -0.58    +0.279 HD
DOCKED: ATOM     21  H   UNL d   1      60.395  51.197  83.274 -0.44 -0.97    +0.279 HD
DOCKED: ENDBRANCH   2  18
DOCKED: TORSDOF 2
DOCKED: TER
DOCKED: ENDMDL
________________________________________________________________________________


	BEGINNING GENETIC ALGORITHM DOCKING 10 of 10
Run: 10 Seed: 1092111465 2007428504 [ Run 10 of 10 GA/GALS ]
Beginning LAMARCKIAN GENETIC ALGORITHM (LGA), with a maximum of 2500000 energy evaluations.

Final-Value: -8.080


	FINAL GENETIC ALGORITHM DOCKED STATE
	_______________________________________________


Detailed state:  trans 60.160 30.463 49.011 quatxyzw 0.558309 0.749480 0.074568 0.347864 center -3.370 1.923 0.102 ntor 2 -39.0525 -87.9146
State:	 60.160  30.463  49.011   0.596  0.799  0.080 139.287    -39.05  -87.91

DOCKED: MODEL       10
DOCKED: USER    Run = 10
DOCKED: USER    DPF = C:/Users/lam16/Documents/Cours/2025/projet-long/martini_to_allatom/docking/ADT_TM/indatraline/open_tm.dpf
DOCKED: USER  
DOCKED: USER    Estimated Free Energy of Binding    =   -7.19 kcal/mol  [=(1)+(2)+(3)-(4)]
DOCKED: USER    Estimated Inhibition Constant, Ki   =    5.40 uM (micromolar)  [Temperature = 298.15 K]
DOCKED: USER    
DOCKED: USER    (1) Final Intermolecular Energy     =   -7.78 kcal/mol
DOCKED: USER        vdW + Hbond + desolv Energy     =   -5.61 kcal/mol
DOCKED: USER        Electrostatic Energy            =   -2.17 kcal/mol
DOCKED: USER    (2) Final Total Internal Energy     =   -0.30 kcal/mol
DOCKED: USER    (3) Torsional Free Energy           =   +0.60 kcal/mol
DOCKED: USER    (4) Unbound System's Energy  [=(2)] =   -0.30 kcal/mol
DOCKED: USER    
DOCKED: USER    
DOCKED: USER    NEWDPF move indatraline.pdbqt
DOCKED: USER    NEWDPF about -3.370000 1.923000 0.102000
DOCKED: USER    NEWDPF tran0 60.160357 30.462645 49.010932
DOCKED: USER    NEWDPF quaternion0 0.558309 0.749480 0.074568 0.347864
DOCKED: USER    NEWDPF axisangle0 0.595501 0.799407 0.079535 139.286510
DOCKED: USER    NEWDPF quat0 0.595501 0.799407 0.079535 139.286510
DOCKED: USER    NEWDPF dihe0 -39.05 -87.91 
DOCKED: USER  keepresnum = 1 
DOCKED: USER  
DOCKED: REMARK  2 active torsions:
DOCKED: REMARK  status: ('A' for Active; 'I' for Inactive)
DOCKED: REMARK    1  A    between atoms: C_5  and  N_3 
DOCKED: REMARK    2  A    between atoms: C_4  and  C_9 
DOCKED: USER                              x       y       z     vdW  Elec       q    Type
DOCKED: USER                           _______ _______ _______ _____ _____    ______ ____
DOCKED: ROOT
DOCKED: ATOM      1  C   UNL d   1      59.869  29.855  48.992 -0.21 -0.05    +0.046 C 
DOCKED: ATOM      2  C   UNL d   1      62.183  29.095  48.514 -0.17 -0.28    +0.204 C 
DOCKED: ATOM      3  C   UNL d   1      61.166  29.336  49.652 -0.22 -0.04    +0.043 C 
DOCKED: ATOM      4  C   UNL d   1      60.431  30.597  47.808 -0.23 +0.02    -0.021 A 
DOCKED: ATOM      5  C   UNL d   1      61.736  30.156  47.530 -0.19 -0.00    +0.002 A 
DOCKED: ATOM      6  C   UNL d   1      59.804  31.526  46.988 -0.21 +0.00    -0.004 A 
DOCKED: ATOM      7  C   UNL d   1      62.439  30.655  46.442 -0.17 +0.00    -0.003 A 
DOCKED: ATOM      8  C   UNL d   1      60.507  32.036  45.896 -0.21 +0.00    -0.000 A 
DOCKED: ATOM      9  C   UNL d   1      61.814  31.605  45.625 -0.18 +0.00    -0.000 A 
DOCKED: ENDROOT
DOCKED: BRANCH   1  10
DOCKED: ATOM     10  C   UNL d   1      59.010  30.658  49.948 -0.29 +0.01    -0.018 A 
DOCKED: ATOM     11  C   UNL d   1      59.026  30.425  51.335 -0.29 -0.01    +0.008 A 
DOCKED: ATOM     12  C   UNL d   1      58.190  31.146  52.195 -0.30 -0.05    +0.068 A 
DOCKED: ATOM     13 CL   UNL d   1      58.255  30.771  53.881 -0.62 +0.06    -0.082 Cl
DOCKED: ATOM     14  C   UNL d   1      57.334  32.123  51.678 -0.29 -0.06    +0.068 A 
DOCKED: ATOM     15 CL   UNL d   1      56.269  33.047  52.675 -0.49 +0.07    -0.082 Cl
DOCKED: ATOM     16  C   UNL d   1      57.323  32.375  50.303 -0.25 -0.01    +0.012 A 
DOCKED: ATOM     17  C   UNL d   1      58.153  31.647  49.447 -0.25 +0.00    -0.003 A 
DOCKED: ENDBRANCH   1  10
DOCKED: BRANCH   2  18
DOCKED: ATOM     18  N   UNL d   1      62.093  27.767  47.907 -0.18 +0.08    -0.041 N 
DOCKED: ATOM     19  C   UNL d   1      63.222  26.912  48.251 -0.06 -0.44    +0.242 C 
DOCKED: ATOM     20  H   UNL d   1      61.235  27.318  48.228 -0.38 -0.60    +0.279 HD
DOCKED: ATOM     21  H   UNL d   1      62.099  27.890  46.894 -0.44 -0.90    +0.279 HD
DOCKED: ENDBRANCH   2  18
DOCKED: TORSDOF 2
DOCKED: TER
DOCKED: ENDMDL
________________________________________________________________________________

DPF> analysis                             # perform a ranked cluster analysis


		CLUSTER ANALYSIS OF CONFORMATIONS
		_________________________________

Number of conformations = 10

RMSD cluster analysis will be performed using the ligand atoms only (21 / 21 total atoms).

Outputting structurally similar clusters, ranked in order of increasing energy.


________________________________________________________________________________

Number of distinct conformational clusters found = 10,  out of 10 runs,
Using an rmsd-tolerance of 2.0 A


	CLUSTERING HISTOGRAM
	____________________

________________________________________________________________________________
     |           |     |           |     |                                    
Clus | Lowest    | Run | Mean      | Num | Histogram                          
-ter | Binding   |     | Binding   | in  |                                    
Rank | Energy    |     | Energy    | Clus|    5    10   15   20   25   30   35
_____|___________|_____|___________|_____|____:____|____:____|____:____|____:___
   1 |     -8.70 |   4 |     -8.70 |   1 |#
   2 |     -8.12 |   1 |     -8.12 |   1 |#
   3 |     -8.10 |   3 |     -8.10 |   1 |#
   4 |     -7.85 |   8 |     -7.85 |   1 |#
   5 |     -7.71 |   5 |     -7.71 |   1 |#
   6 |     -7.28 |   9 |     -7.28 |   1 |#
   7 |     -7.22 |   7 |     -7.22 |   1 |#
   8 |     -7.19 |  10 |     -7.19 |   1 |#
   9 |     -6.70 |   2 |     -6.70 |   1 |#
  10 |     -6.60 |   6 |     -6.60 |   1 |#
_____|___________|_____|___________|_____|______________________________________

	RMSD TABLE
	__________

_____________________________________________________________________
     |      |      |           |         |                 |
Rank | Sub- | Run  | Binding   | Cluster | Reference       | Grep
     | Rank |      | Energy    | RMSD    | RMSD            | Pattern
_____|______|______|___________|_________|_________________|___________
   1      1      4       -8.70      0.00     81.11           RANKING
   2      1      1       -8.12      0.00    105.08           RANKING
   3      1      3       -8.10      0.00     90.62           RANKING
   4      1      8       -7.85      0.00     99.03           RANKING
   5      1      5       -7.71      0.00    146.77           RANKING
   6      1      9       -7.28      0.00    113.36           RANKING
   7      1      7       -7.22      0.00     79.74           RANKING
   8      1     10       -7.19      0.00     84.28           RANKING
   9      1      2       -6.70      0.00     86.68           RANKING
  10      1      6       -6.60      0.00     89.16           RANKING
_______________________________________________________________________



	INFORMATION ENTROPY ANALYSIS FOR THIS CLUSTERING
	________________________________________________


Information entropy for this clustering = 1.00  (rmstol = 2.00 Angstrom)

_______________________________________________________________________


	STATISTICAL MECHANICAL ANALYSIS
	_______________________________


Partition function, Q =    10.13            at Temperature, T = 298.15 K
Free energy,        A ~ -1371.78 kcal/mol   at Temperature, T = 298.15 K
Internal energy,    U =    -7.55 kcal/mol   at Temperature, T = 298.15 K
Entropy,            S =     4.58 kcal/mol/K at Temperature, T = 298.15 K

_______________________________________________________________________


	LOWEST ENERGY DOCKED CONFORMATION from EACH CLUSTER
	___________________________________________________



Keeping original residue number (specified in the input PDBQ file) for outputting.

MODEL        4
USER    Run = 4
USER    Cluster Rank = 1
USER    Number of conformations in this cluster = 1
USER  
USER    RMSD from reference structure       = 81.112 A
USER  
USER    Estimated Free Energy of Binding    =   -8.70 kcal/mol  [=(1)+(2)+(3)-(4)]
USER    Estimated Inhibition Constant, Ki   =  420.74 nM (nanomolar)  [Temperature = 298.15 K]
USER    
USER    (1) Final Intermolecular Energy     =   -9.29 kcal/mol
USER        vdW + Hbond + desolv Energy     =   -6.82 kcal/mol
USER        Electrostatic Energy            =   -2.48 kcal/mol
USER    (2) Final Total Internal Energy     =   -0.40 kcal/mol
USER    (3) Torsional Free Energy           =   +0.60 kcal/mol
USER    (4) Unbound System's Energy  [=(2)] =   -0.40 kcal/mol
USER    
USER    
USER  
USER    DPF = C:/Users/lam16/Documents/Cours/2025/projet-long/martini_to_allatom/docking/ADT_TM/indatraline/open_tm.dpf
USER    NEWDPF move	indatraline.pdbqt
USER    NEWDPF about	-3.370000 1.923000 0.102000
USER    NEWDPF tran0	45.497210 35.466272 56.939924
USER    NEWDPF axisangle0	0.289044 0.948800 0.127408 141.017620
USER    NEWDPF quaternion0	0.272480 0.894427 0.120106 0.333662
USER    NEWDPF dihe0	150.20 -48.76 
USER  
USER                              x       y       z    vdW   Elec        q     RMS 
ATOM      1  C   UNL d   1      45.595  34.828  56.748 -0.27 -0.07    +0.046    81.112
ATOM      2  C   UNL d   1      47.984  35.501  56.795 -0.16 -0.38    +0.204    81.112
ATOM      3  C   UNL d   1      46.856  34.872  57.641 -0.27 -0.07    +0.043    81.112
ATOM      4  C   UNL d   1      45.814  36.046  55.891 -0.30 +0.03    -0.021    81.112
ATOM      5  C   UNL d   1      47.169  36.418  55.907 -0.35 -0.00    +0.002    81.112
ATOM      6  C   UNL d   1      44.901  36.719  55.089 -0.40 +0.01    -0.004    81.112
ATOM      7  C   UNL d   1      47.625  37.482  55.140 -0.32 +0.00    -0.003    81.112
ATOM      8  C   UNL d   1      45.351  37.793  54.321 -0.45 +0.00    -0.000    81.112
ATOM      9  C   UNL d   1      46.701  38.173  54.345 -0.46 +0.00    -0.000    81.112
ATOM     10  C   UNL d   1      44.312  34.788  57.553 -0.29 +0.02    -0.018    81.112
ATOM     11  C   UNL d   1      44.300  35.013  58.941 -0.27 -0.01    +0.008    81.112
ATOM     12  C   UNL d   1      43.110  34.926  59.673 -0.24 -0.07    +0.068    81.112
ATOM     13 CL   UNL d   1      43.195  35.187  61.379 -0.40 +0.07    -0.082    81.112
ATOM     14  C   UNL d   1      41.911  34.624  59.020 -0.28 -0.08    +0.068    81.112
ATOM     15 CL   UNL d   1      40.406  34.492  59.857 -0.51 +0.10    -0.082    81.112
ATOM     16  C   UNL d   1      41.909  34.416  57.639 -0.41 -0.01    +0.012    81.112
ATOM     17  C   UNL d   1      43.101  34.496  56.913 -0.41 +0.00    -0.003    81.112
ATOM     18  N   UNL d   1      48.729  34.537  55.984 -0.13 +0.10    -0.041    81.112
ATOM     19  C   UNL d   1      48.039  34.184  54.750 -0.18 -0.51    +0.242    81.112
ATOM     20  H   UNL d   1      49.635  34.941  55.747 -0.35 -0.78    +0.279    81.112
ATOM     21  H   UNL d   1      48.829  33.683  56.535 -0.34 -0.83    +0.279    81.112
TER
ENDMDL
MODEL        1
USER    Run = 1
USER    Cluster Rank = 2
USER    Number of conformations in this cluster = 1
USER  
USER    RMSD from reference structure       = 105.083 A
USER  
USER    Estimated Free Energy of Binding    =   -8.12 kcal/mol  [=(1)+(2)+(3)-(4)]
USER    Estimated Inhibition Constant, Ki   =    1.12 uM (micromolar)  [Temperature = 298.15 K]
USER    
USER    (1) Final Intermolecular Energy     =   -8.71 kcal/mol
USER        vdW + Hbond + desolv Energy     =   -6.42 kcal/mol
USER        Electrostatic Energy            =   -2.29 kcal/mol
USER    (2) Final Total Internal Energy     =   -0.38 kcal/mol
USER    (3) Torsional Free Energy           =   +0.60 kcal/mol
USER    (4) Unbound System's Energy  [=(2)] =   -0.38 kcal/mol
USER    
USER    
USER  
USER    DPF = C:/Users/lam16/Documents/Cours/2025/projet-long/martini_to_allatom/docking/ADT_TM/indatraline/open_tm.dpf
USER    NEWDPF move	indatraline.pdbqt
USER    NEWDPF about	-3.370000 1.923000 0.102000
USER    NEWDPF tran0	40.675272 53.114312 82.190640
USER    NEWDPF axisangle0	0.103410 0.146940 0.983725 -155.491994
USER    NEWDPF quaternion0	0.101054 0.143592 0.961312 -0.212246
USER    NEWDPF dihe0	164.13 -158.05 
USER  
USER                              x       y       z    vdW   Elec        q     RMS 
ATOM      1  C   UNL d   1      41.214  53.294  81.827 -0.29 -0.05    +0.046    105.083
ATOM      2  C   UNL d   1      41.289  50.869  81.304 -0.30 -0.30    +0.204    105.083
ATOM      3  C   UNL d   1      40.743  52.227  80.812 -0.33 -0.05    +0.043    105.083
ATOM      4  C   UNL d   1      41.241  52.484  83.096 -0.32 +0.02    -0.021    105.083
ATOM      5  C   UNL d   1      41.298  51.111  82.798 -0.39 -0.00    +0.002    105.083
ATOM      6  C   UNL d   1      41.301  52.930  84.410 -0.33 +0.00    -0.004    105.083
ATOM      7  C   UNL d   1      41.391  50.167  83.811 -0.47 +0.00    -0.003    105.083
ATOM      8  C   UNL d   1      41.388  51.985  85.433 -0.19 +0.00    -0.000    105.083
ATOM      9  C   UNL d   1      41.433  50.615  85.138 -0.48 +0.00    -0.000    105.083
ATOM     10  C   UNL d   1      40.331  54.525  81.829 -0.21 +0.02    -0.018    105.083
ATOM     11  C   UNL d   1      40.682  55.692  81.127 -0.26 -0.01    +0.008    105.083
ATOM     12  C   UNL d   1      39.875  56.834  81.181 -0.30 -0.09    +0.068    105.083
ATOM     13 CL   UNL d   1      40.401  58.232  80.312 -0.48 +0.09    -0.082    105.083
ATOM     14  C   UNL d   1      38.695  56.819  81.931 -0.35 -0.12    +0.068    105.083
ATOM     15 CL   UNL d   1      37.653  58.191  82.051 -0.69 +0.17    -0.082    105.083
ATOM     16  C   UNL d   1      38.328  55.659  82.618 -0.30 -0.02    +0.012    105.083
ATOM     17  C   UNL d   1      39.140  54.523  82.568 -0.37 +0.00    -0.003    105.083
ATOM     18  N   UNL d   1      42.639  50.562  80.829 +0.03 +0.09    -0.041    105.083
ATOM     19  C   UNL d   1      43.673  50.951  81.780 -0.17 -0.34    +0.242    105.083
ATOM     20  H   UNL d   1      42.708  49.558  80.666 +0.01 -0.80    +0.279    105.083
ATOM     21  H   UNL d   1      42.794  51.096  79.973 -0.23 -0.91    +0.279    105.083
TER
ENDMDL
MODEL        3
USER    Run = 3
USER    Cluster Rank = 3
USER    Number of conformations in this cluster = 1
USER  
USER    RMSD from reference structure       = 90.615 A
USER  
USER    Estimated Free Energy of Binding    =   -8.10 kcal/mol  [=(1)+(2)+(3)-(4)]
USER    Estimated Inhibition Constant, Ki   =    1.15 uM (micromolar)  [Temperature = 298.15 K]
USER    
USER    (1) Final Intermolecular Energy     =   -8.70 kcal/mol
USER        vdW + Hbond + desolv Energy     =   -7.50 kcal/mol
USER        Electrostatic Energy            =   -1.20 kcal/mol
USER    (2) Final Total Internal Energy     =   -0.45 kcal/mol
USER    (3) Torsional Free Energy           =   +0.60 kcal/mol
USER    (4) Unbound System's Energy  [=(2)] =   -0.45 kcal/mol
USER    
USER    
USER  
USER    DPF = C:/Users/lam16/Documents/Cours/2025/projet-long/martini_to_allatom/docking/ADT_TM/indatraline/open_tm.dpf
USER    NEWDPF move	indatraline.pdbqt
USER    NEWDPF about	-3.370000 1.923000 0.102000
USER    NEWDPF tran0	42.807595 51.023246 62.666634
USER    NEWDPF axisangle0	0.863435 0.378894 -0.333045 -99.811124
USER    NEWDPF quaternion0	0.660514 0.289848 -0.254774 -0.644049
USER    NEWDPF dihe0	-81.20 -156.71 
USER  
USER                              x       y       z    vdW   Elec        q     RMS 
ATOM      1  C   UNL d   1      42.148  51.162  62.657 -0.38 -0.05    +0.046    90.615
ATOM      2  C   UNL d   1      42.628  52.127  64.893 -0.29 -0.24    +0.204    90.615
ATOM      3  C   UNL d   1      42.526  52.469  63.390 -0.28 -0.06    +0.043    90.615
ATOM      4  C   UNL d   1      42.819  50.140  63.537 -0.34 +0.02    -0.021    90.615
ATOM      5  C   UNL d   1      43.078  50.684  64.807 -0.33 -0.00    +0.002    90.615
ATOM      6  C   UNL d   1      43.098  48.807  63.263 -0.39 +0.00    -0.004    90.615
ATOM      7  C   UNL d   1      43.640  49.909  65.812 -0.32 +0.00    -0.003    90.615
ATOM      8  C   UNL d   1      43.669  48.025  64.267 -0.43 +0.00    -0.000    90.615
ATOM      9  C   UNL d   1      43.939  48.569  65.531 -0.39 +0.00    -0.000    90.615
ATOM     10  C   UNL d   1      42.558  51.172  61.199 -0.37 +0.02    -0.018    90.615
ATOM     11  C   UNL d   1      41.652  51.504  60.176 -0.34 -0.01    +0.008    90.615
ATOM     12  C   UNL d   1      42.039  51.462  58.831 -0.47 -0.06    +0.068    90.615
ATOM     13 CL   UNL d   1      40.851  51.857  57.640 -0.83 +0.07    -0.082    90.615
ATOM     14  C   UNL d   1      43.346  51.097  58.493 -0.38 -0.06    +0.068    90.615
ATOM     15 CL   UNL d   1      43.894  51.015  56.857 -0.60 +0.06    -0.082    90.615
ATOM     16  C   UNL d   1      44.258  50.782  59.503 -0.37 -0.01    +0.012    90.615
ATOM     17  C   UNL d   1      43.866  50.818  60.844 -0.33 +0.00    -0.003    90.615
ATOM     18  N   UNL d   1      41.358  52.223  65.613 -0.42 +0.05    -0.041    90.615
ATOM     19  C   UNL d   1      41.531  52.571  67.017 -0.31 -0.24    +0.242    90.615
ATOM     20  H   UNL d   1      40.784  52.939  65.168 -0.11 -0.39    +0.279    90.615
ATOM     21  H   UNL d   1      40.913  51.306  65.576 +0.17 -0.29    +0.279    90.615
TER
ENDMDL
MODEL        8
USER    Run = 8
USER    Cluster Rank = 4
USER    Number of conformations in this cluster = 1
USER  
USER    RMSD from reference structure       = 99.033 A
USER  
USER    Estimated Free Energy of Binding    =   -7.85 kcal/mol  [=(1)+(2)+(3)-(4)]
USER    Estimated Inhibition Constant, Ki   =    1.77 uM (micromolar)  [Temperature = 298.15 K]
USER    
USER    (1) Final Intermolecular Energy     =   -8.44 kcal/mol
USER        vdW + Hbond + desolv Energy     =   -7.62 kcal/mol
USER        Electrostatic Energy            =   -0.82 kcal/mol
USER    (2) Final Total Internal Energy     =   -0.36 kcal/mol
USER    (3) Torsional Free Energy           =   +0.60 kcal/mol
USER    (4) Unbound System's Energy  [=(2)] =   -0.36 kcal/mol
USER    
USER    
USER  
USER    DPF = C:/Users/lam16/Documents/Cours/2025/projet-long/martini_to_allatom/docking/ADT_TM/indatraline/open_tm.dpf
USER    NEWDPF move	indatraline.pdbqt
USER    NEWDPF about	-3.370000 1.923000 0.102000
USER    NEWDPF tran0	44.538642 51.907032 72.806896
USER    NEWDPF axisangle0	0.820180 0.559987 -0.117127 137.532216
USER    NEWDPF quaternion0	0.764498 0.521969 -0.109175 0.362176
USER    NEWDPF dihe0	-87.68 87.82 
USER  
USER                              x       y       z    vdW   Elec        q     RMS 
ATOM      1  C   UNL d   1      44.091  51.534  73.146 -0.39 -0.04    +0.046    99.033
ATOM      2  C   UNL d   1      45.514  49.659  72.357 -0.38 -0.15    +0.204    99.033
ATOM      3  C   UNL d   1      45.294  50.642  73.528 -0.47 -0.03    +0.043    99.033
ATOM      4  C   UNL d   1      44.240  51.582  71.648 -0.34 +0.02    -0.021    99.033
ATOM      5  C   UNL d   1      45.035  50.513  71.201 -0.40 -0.00    +0.002    99.033
ATOM      6  C   UNL d   1      43.647  52.453  70.744 -0.33 +0.00    -0.004    99.033
ATOM      7  C   UNL d   1      45.265  50.314  69.847 -0.40 +0.00    -0.003    99.033
ATOM      8  C   UNL d   1      43.880  52.263  69.381 -0.36 +0.00    -0.000    99.033
ATOM      9  C   UNL d   1      44.682  51.203  68.935 -0.35 +0.00    -0.000    99.033
ATOM     10  C   UNL d   1      44.099  52.865  73.870 -0.26 +0.02    -0.018    99.033
ATOM     11  C   UNL d   1      43.600  54.037  73.274 -0.30 -0.01    +0.008    99.033
ATOM     12  C   UNL d   1      43.661  55.265  73.942 -0.32 -0.06    +0.068    99.033
ATOM     13 CL   UNL d   1      43.051  56.658  73.121 -0.57 +0.09    -0.082    99.033
ATOM     14  C   UNL d   1      44.211  55.334  75.225 -0.34 -0.06    +0.068    99.033
ATOM     15 CL   UNL d   1      44.327  56.813  76.109 -0.68 +0.07    -0.082    99.033
ATOM     16  C   UNL d   1      44.695  54.172  75.833 -0.35 -0.01    +0.012    99.033
ATOM     17  C   UNL d   1      44.640  52.949  75.160 -0.38 +0.00    -0.003    99.033
ATOM     18  N   UNL d   1      44.719  48.434  72.450 -0.45 +0.03    -0.041    99.033
ATOM     19  C   UNL d   1      45.290  47.332  71.685 -0.40 -0.18    +0.242    99.033
ATOM     20  H   UNL d   1      44.662  48.155  73.429 -0.04 -0.23    +0.279    99.033
ATOM     21  H   UNL d   1      43.798  48.634  72.059 -0.11 -0.28    +0.279    99.033
TER
ENDMDL
MODEL        5
USER    Run = 5
USER    Cluster Rank = 5
USER    Number of conformations in this cluster = 1
USER  
USER    RMSD from reference structure       = 146.773 A
USER  
USER    Estimated Free Energy of Binding    =   -7.71 kcal/mol  [=(1)+(2)+(3)-(4)]
USER    Estimated Inhibition Constant, Ki   =    2.23 uM (micromolar)  [Temperature = 298.15 K]
USER    
USER    (1) Final Intermolecular Energy     =   -8.31 kcal/mol
USER        vdW + Hbond + desolv Energy     =   -6.55 kcal/mol
USER        Electrostatic Energy            =   -1.76 kcal/mol
USER    (2) Final Total Internal Energy     =   -0.47 kcal/mol
USER    (3) Torsional Free Energy           =   +0.60 kcal/mol
USER    (4) Unbound System's Energy  [=(2)] =   -0.47 kcal/mol
USER    
USER    
USER  
USER    DPF = C:/Users/lam16/Documents/Cours/2025/projet-long/martini_to_allatom/docking/ADT_TM/indatraline/open_tm.dpf
USER    NEWDPF move	indatraline.pdbqt
USER    NEWDPF about	-3.370000 1.923000 0.102000
USER    NEWDPF tran0	63.640912 52.836164 121.760229
USER    NEWDPF axisangle0	-0.782610 0.605654 0.143893 -160.661514
USER    NEWDPF quaternion0	-0.771492 0.597050 0.141849 -0.167960
USER    NEWDPF dihe0	-39.10 -179.24 
USER  
USER                              x       y       z    vdW   Elec        q     RMS 
ATOM      1  C   UNL d   1      63.994  53.269 122.138 -0.37 -0.06    +0.046    146.773
ATOM      2  C   UNL d   1      61.866  53.429 123.405 -0.22 -0.26    +0.204    146.773
ATOM      3  C   UNL d   1      63.217  52.682 123.338 -0.29 -0.06    +0.043    146.773
ATOM      4  C   UNL d   1      62.860  53.631 121.215 -0.33 +0.02    -0.021    146.773
ATOM      5  C   UNL d   1      61.658  53.734 121.937 -0.31 -0.00    +0.002    146.773
ATOM      6  C   UNL d   1      62.905  53.931 119.860 -0.49 +0.00    -0.004    146.773
ATOM      7  C   UNL d   1      60.482  54.117 121.307 -0.34 +0.00    -0.003    146.773
ATOM      8  C   UNL d   1      61.724  54.310 119.220 -0.28 +0.00    -0.000    146.773
ATOM      9  C   UNL d   1      60.522  54.402 119.936 -0.43 +0.00    -0.000    146.773
ATOM     10  C   UNL d   1      65.031  52.309 121.590 -0.35 +0.02    -0.018    146.773
ATOM     11  C   UNL d   1      66.399  52.632 121.561 -0.40 -0.01    +0.008    146.773
ATOM     12  C   UNL d   1      67.335  51.750 121.008 -0.24 -0.04    +0.068    146.773
ATOM     13 CL   UNL d   1      68.991  52.244 120.988 -0.44 +0.02    -0.082    146.773
ATOM     14  C   UNL d   1      66.913  50.523 120.487 -0.19 -0.04    +0.068    146.773
ATOM     15 CL   UNL d   1      68.007  49.387 119.782 -0.23 +0.04    -0.082    146.773
ATOM     16  C   UNL d   1      65.558  50.185 120.527 -0.33 -0.01    +0.012    146.773
ATOM     17  C   UNL d   1      64.626  51.072 121.073 -0.33 +0.00    -0.003    146.773
ATOM     18  N   UNL d   1      61.909  54.668 124.182 -0.37 +0.06    -0.041    146.773
ATOM     19  C   UNL d   1      61.201  54.563 125.451 -0.32 -0.25    +0.242    146.773
ATOM     20  H   UNL d   1      62.884  54.902 124.371 -0.34 -0.73    +0.279    146.773
ATOM     21  H   UNL d   1      61.447  55.393 123.632 +0.06 -0.48    +0.279    146.773
TER
ENDMDL
MODEL        9
USER    Run = 9
USER    Cluster Rank = 6
USER    Number of conformations in this cluster = 1
USER  
USER    RMSD from reference structure       = 113.362 A
USER  
USER    Estimated Free Energy of Binding    =   -7.28 kcal/mol  [=(1)+(2)+(3)-(4)]
USER    Estimated Inhibition Constant, Ki   =    4.62 uM (micromolar)  [Temperature = 298.15 K]
USER    
USER    (1) Final Intermolecular Energy     =   -7.88 kcal/mol
USER        vdW + Hbond + desolv Energy     =   -5.72 kcal/mol
USER        Electrostatic Energy            =   -2.16 kcal/mol
USER    (2) Final Total Internal Energy     =   -0.42 kcal/mol
USER    (3) Torsional Free Energy           =   +0.60 kcal/mol
USER    (4) Unbound System's Energy  [=(2)] =   -0.42 kcal/mol
USER    
USER    
USER  
USER    DPF = C:/Users/lam16/Documents/Cours/2025/projet-long/martini_to_allatom/docking/ADT_TM/indatraline/open_tm.dpf
USER    NEWDPF move	indatraline.pdbqt
USER    NEWDPF about	-3.370000 1.923000 0.102000
USER    NEWDPF tran0	60.706418 53.048887 80.020870
USER    NEWDPF axisangle0	0.273616 0.931278 0.240533 -125.891910
USER    NEWDPF quaternion0	0.243676 0.829375 0.214213 -0.454831
USER    NEWDPF dihe0	154.96 -28.16 
USER  
USER                              x       y       z    vdW   Elec        q     RMS 
ATOM      1  C   UNL d   1      60.678  52.382  80.118 -0.22 -0.04    +0.046    113.362
ATOM      2  C   UNL d   1      60.747  53.035  82.512 -0.21 -0.28    +0.204    113.362
ATOM      3  C   UNL d   1      59.792  52.713  81.341 -0.32 -0.05    +0.043    113.362
ATOM      4  C   UNL d   1      61.872  53.259  80.389 -0.14 +0.02    -0.021    113.362
ATOM      5  C   UNL d   1      61.917  53.617  81.747 -0.14 -0.00    +0.002    113.362
ATOM      6  C   UNL d   1      62.887  53.637  79.519 -0.11 +0.00    -0.004    113.362
ATOM      7  C   UNL d   1      62.965  54.376  82.248 -0.09 +0.00    -0.003    113.362
ATOM      8  C   UNL d   1      63.940  54.406  80.015 -0.07 +0.00    -0.000    113.362
ATOM      9  C   UNL d   1      63.980  54.773  81.368 -0.06 +0.00    -0.000    113.362
ATOM     10  C   UNL d   1      59.960  52.605  78.802 -0.27 +0.01    -0.018    113.362
ATOM     11  C   UNL d   1      58.976  53.598  78.652 -0.28 -0.01    +0.008    113.362
ATOM     12  C   UNL d   1      58.291  53.755  77.442 -0.38 -0.05    +0.068    113.362
ATOM     13 CL   UNL d   1      57.077  54.982  77.358 -0.82 +0.05    -0.082    113.362
ATOM     14  C   UNL d   1      58.594  52.926  76.357 -0.41 -0.05    +0.068    113.362
ATOM     15 CL   UNL d   1      57.788  53.055  74.836 -0.88 +0.05    -0.082    113.362
ATOM     16  C   UNL d   1      59.582  51.947  76.490 -0.27 -0.01    +0.012    113.362
ATOM     17  C   UNL d   1      60.258  51.788  77.703 -0.30 +0.00    -0.003    113.362
ATOM     18  N   UNL d   1      61.169  51.862  83.276 -0.04 +0.08    -0.041    113.362
ATOM     19  C   UNL d   1      62.324  51.193  82.691 -0.10 -0.35    +0.242    113.362
ATOM     20  H   UNL d   1      61.409  52.157  84.223 -0.17 -0.58    +0.279    113.362
ATOM     21  H   UNL d   1      60.395  51.197  83.274 -0.44 -0.97    +0.279    113.362
TER
ENDMDL
MODEL        7
USER    Run = 7
USER    Cluster Rank = 7
USER    Number of conformations in this cluster = 1
USER  
USER    RMSD from reference structure       = 79.736 A
USER  
USER    Estimated Free Energy of Binding    =   -7.22 kcal/mol  [=(1)+(2)+(3)-(4)]
USER    Estimated Inhibition Constant, Ki   =    5.13 uM (micromolar)  [Temperature = 298.15 K]
USER    
USER    (1) Final Intermolecular Energy     =   -7.81 kcal/mol
USER        vdW + Hbond + desolv Energy     =   -6.00 kcal/mol
USER        Electrostatic Energy            =   -1.81 kcal/mol
USER    (2) Final Total Internal Energy     =   -0.37 kcal/mol
USER    (3) Torsional Free Energy           =   +0.60 kcal/mol
USER    (4) Unbound System's Energy  [=(2)] =   -0.37 kcal/mol
USER    
USER    
USER  
USER    DPF = C:/Users/lam16/Documents/Cours/2025/projet-long/martini_to_allatom/docking/ADT_TM/indatraline/open_tm.dpf
USER    NEWDPF move	indatraline.pdbqt
USER    NEWDPF about	-3.370000 1.923000 0.102000
USER    NEWDPF tran0	40.508615 33.740278 60.024728
USER    NEWDPF axisangle0	0.494003 0.412713 0.765264 -66.011052
USER    NEWDPF quaternion0	0.269093 0.224813 0.416855 -0.838618
USER    NEWDPF dihe0	-92.32 56.27 
USER  
USER                              x       y       z    vdW   Elec        q     RMS 
ATOM      1  C   UNL d   1      40.439  33.173  59.667 -0.32 -0.06    +0.046    79.736
ATOM      2  C   UNL d   1      38.050  33.435  60.289 -0.34 -0.30    +0.204    79.736
ATOM      3  C   UNL d   1      39.092  33.768  59.198 -0.38 -0.07    +0.043    79.736
ATOM      4  C   UNL d   1      40.296  33.293  61.161 -0.16 +0.02    -0.021    79.736
ATOM      5  C   UNL d   1      38.941  33.428  61.513 -0.23 -0.00    +0.002    79.736
ATOM      6  C   UNL d   1      41.278  33.201  62.138 -0.08 +0.00    -0.004    79.736
ATOM      7  C   UNL d   1      38.555  33.495  62.844 -0.19 +0.00    -0.003    79.736
ATOM      8  C   UNL d   1      40.897  33.275  63.478 -0.07 +0.00    -0.000    79.736
ATOM      9  C   UNL d   1      39.548  33.421  63.830 -0.13 +0.00    -0.000    79.736
ATOM     10  C   UNL d   1      41.632  33.870  59.044 -0.31 +0.02    -0.018    79.736
ATOM     11  C   UNL d   1      42.557  34.592  59.819 -0.24 -0.01    +0.008    79.736
ATOM     12  C   UNL d   1      43.626  35.268  59.218 -0.28 -0.07    +0.068    79.736
ATOM     13 CL   UNL d   1      44.695  36.155  60.245 -0.52 +0.07    -0.082    79.736
ATOM     14  C   UNL d   1      43.790  35.217  57.831 -0.30 -0.08    +0.068    79.736
ATOM     15 CL   UNL d   1      45.079  36.030  57.017 -0.43 +0.11    -0.082    79.736
ATOM     16  C   UNL d   1      42.886  34.488  57.053 -0.40 -0.01    +0.012    79.736
ATOM     17  C   UNL d   1      41.816  33.821  57.656 -0.43 +0.00    -0.003    79.736
ATOM     18  N   UNL d   1      37.406  32.132  60.119 -0.37 +0.07    -0.041    79.736
ATOM     19  C   UNL d   1      36.167  32.013  60.876 -0.32 -0.31    +0.242    79.736
ATOM     20  H   UNL d   1      37.197  31.998  59.129 -0.32 -0.63    +0.279    79.736
ATOM     21  H   UNL d   1      38.049  31.422  60.469 -0.18 -0.58    +0.279    79.736
TER
ENDMDL
MODEL       10
USER    Run = 10
USER    Cluster Rank = 8
USER    Number of conformations in this cluster = 1
USER  
USER    RMSD from reference structure       = 84.283 A
USER  
USER    Estimated Free Energy of Binding    =   -7.19 kcal/mol  [=(1)+(2)+(3)-(4)]
USER    Estimated Inhibition Constant, Ki   =    5.40 uM (micromolar)  [Temperature = 298.15 K]
USER    
USER    (1) Final Intermolecular Energy     =   -7.78 kcal/mol
USER        vdW + Hbond + desolv Energy     =   -5.61 kcal/mol
USER        Electrostatic Energy            =   -2.17 kcal/mol
USER    (2) Final Total Internal Energy     =   -0.30 kcal/mol
USER    (3) Torsional Free Energy           =   +0.60 kcal/mol
USER    (4) Unbound System's Energy  [=(2)] =   -0.30 kcal/mol
USER    
USER    
USER  
USER    DPF = C:/Users/lam16/Documents/Cours/2025/projet-long/martini_to_allatom/docking/ADT_TM/indatraline/open_tm.dpf
USER    NEWDPF move	indatraline.pdbqt
USER    NEWDPF about	-3.370000 1.923000 0.102000
USER    NEWDPF tran0	60.160357 30.462645 49.010932
USER    NEWDPF axisangle0	0.595501 0.799407 0.079535 139.286510
USER    NEWDPF quaternion0	0.558309 0.749480 0.074568 0.347864
USER    NEWDPF dihe0	-39.05 -87.91 
USER  
USER                              x       y       z    vdW   Elec        q     RMS 
ATOM      1  C   UNL d   1      59.869  29.855  48.992 -0.21 -0.05    +0.046    84.283
ATOM      2  C   UNL d   1      62.183  29.095  48.514 -0.17 -0.28    +0.204    84.283
ATOM      3  C   UNL d   1      61.166  29.336  49.652 -0.22 -0.04    +0.043    84.283
ATOM      4  C   UNL d   1      60.431  30.597  47.808 -0.23 +0.02    -0.021    84.283
ATOM      5  C   UNL d   1      61.736  30.156  47.530 -0.19 -0.00    +0.002    84.283
ATOM      6  C   UNL d   1      59.804  31.526  46.988 -0.21 +0.00    -0.004    84.283
ATOM      7  C   UNL d   1      62.439  30.655  46.442 -0.17 +0.00    -0.003    84.283
ATOM      8  C   UNL d   1      60.507  32.036  45.896 -0.21 +0.00    -0.000    84.283
ATOM      9  C   UNL d   1      61.814  31.605  45.625 -0.18 +0.00    -0.000    84.283
ATOM     10  C   UNL d   1      59.010  30.658  49.948 -0.29 +0.01    -0.018    84.283
ATOM     11  C   UNL d   1      59.026  30.425  51.335 -0.29 -0.01    +0.008    84.283
ATOM     12  C   UNL d   1      58.190  31.146  52.195 -0.30 -0.05    +0.068    84.283
ATOM     13 CL   UNL d   1      58.255  30.771  53.881 -0.62 +0.06    -0.082    84.283
ATOM     14  C   UNL d   1      57.334  32.123  51.678 -0.29 -0.06    +0.068    84.283
ATOM     15 CL   UNL d   1      56.269  33.047  52.675 -0.49 +0.07    -0.082    84.283
ATOM     16  C   UNL d   1      57.323  32.375  50.303 -0.25 -0.01    +0.012    84.283
ATOM     17  C   UNL d   1      58.153  31.647  49.447 -0.25 +0.00    -0.003    84.283
ATOM     18  N   UNL d   1      62.093  27.767  47.907 -0.18 +0.08    -0.041    84.283
ATOM     19  C   UNL d   1      63.222  26.912  48.251 -0.06 -0.44    +0.242    84.283
ATOM     20  H   UNL d   1      61.235  27.318  48.228 -0.38 -0.60    +0.279    84.283
ATOM     21  H   UNL d   1      62.099  27.890  46.894 -0.44 -0.90    +0.279    84.283
TER
ENDMDL
MODEL        2
USER    Run = 2
USER    Cluster Rank = 9
USER    Number of conformations in this cluster = 1
USER  
USER    RMSD from reference structure       = 86.683 A
USER  
USER    Estimated Free Energy of Binding    =   -6.70 kcal/mol  [=(1)+(2)+(3)-(4)]
USER    Estimated Inhibition Constant, Ki   =   12.28 uM (micromolar)  [Temperature = 298.15 K]
USER    
USER    (1) Final Intermolecular Energy     =   -7.30 kcal/mol
USER        vdW + Hbond + desolv Energy     =   -5.18 kcal/mol
USER        Electrostatic Energy            =   -2.12 kcal/mol
USER    (2) Final Total Internal Energy     =   -0.41 kcal/mol
USER    (3) Torsional Free Energy           =   +0.60 kcal/mol
USER    (4) Unbound System's Energy  [=(2)] =   -0.41 kcal/mol
USER    
USER    
USER  
USER    DPF = C:/Users/lam16/Documents/Cours/2025/projet-long/martini_to_allatom/docking/ADT_TM/indatraline/open_tm.dpf
USER    NEWDPF move	indatraline.pdbqt
USER    NEWDPF about	-3.370000 1.923000 0.102000
USER    NEWDPF tran0	62.395841 29.265112 51.063740
USER    NEWDPF axisangle0	0.680181 0.296230 0.670523 126.095435
USER    NEWDPF quaternion0	0.606303 0.264054 0.597694 0.453248
USER    NEWDPF dihe0	151.00 -175.37 
USER  
USER                              x       y       z    vdW   Elec        q     RMS 
ATOM      1  C   UNL d   1      61.841  29.438  50.722 -0.19 -0.04    +0.046    86.683
ATOM      2  C   UNL d   1      62.810  27.947  48.991 -0.17 -0.28    +0.204    86.683
ATOM      3  C   UNL d   1      61.847  27.985  50.197 -0.12 -0.04    +0.043    86.683
ATOM      4  C   UNL d   1      63.247  29.864  50.390 -0.11 +0.02    -0.021    86.683
ATOM      5  C   UNL d   1      63.790  29.027  49.400 -0.09 -0.00    +0.002    86.683
ATOM      6  C   UNL d   1      63.957  30.960  50.863 -0.16 +0.00    -0.004    86.683
ATOM      7  C   UNL d   1      65.058  29.261  48.887 -0.05 +0.00    -0.003    86.683
ATOM      8  C   UNL d   1      65.236  31.196  50.357 -0.13 +0.00    -0.000    86.683
ATOM      9  C   UNL d   1      65.783  30.355  49.377 -0.07 +0.00    -0.000    86.683
ATOM     10  C   UNL d   1      61.433  29.531  52.178 -0.19 +0.01    -0.018    86.683
ATOM     11  C   UNL d   1      60.262  30.198  52.580 -0.23 -0.01    +0.008    86.683
ATOM     12  C   UNL d   1      59.928  30.312  53.934 -0.35 -0.05    +0.068    86.683
ATOM     13 CL   UNL d   1      58.486  31.175  54.337 -0.66 +0.06    -0.082    86.683
ATOM     14  C   UNL d   1      60.758  29.746  54.907 -0.35 -0.05    +0.068    86.683
ATOM     15 CL   UNL d   1      60.416  29.852  56.596 -0.65 +0.06    -0.082    86.683
ATOM     16  C   UNL d   1      61.915  29.066  54.517 -0.30 -0.01    +0.012    86.683
ATOM     17  C   UNL d   1      62.249  28.961  53.164 -0.21 +0.00    -0.003    86.683
ATOM     18  N   UNL d   1      62.180  28.287  47.714 -0.22 +0.08    -0.041    86.683
ATOM     19  C   UNL d   1      62.056  29.724  47.511 -0.13 -0.37    +0.242    86.683
ATOM     20  H   UNL d   1      62.745  27.898  46.958 -0.33 -0.88    +0.279    86.683
ATOM     21  H   UNL d   1      61.238  27.895  47.722 -0.45 -0.64    +0.279    86.683
TER
ENDMDL
MODEL        6
USER    Run = 6
USER    Cluster Rank = 10
USER    Number of conformations in this cluster = 1
USER  
USER    RMSD from reference structure       = 89.164 A
USER  
USER    Estimated Free Energy of Binding    =   -6.60 kcal/mol  [=(1)+(2)+(3)-(4)]
USER    Estimated Inhibition Constant, Ki   =   14.55 uM (micromolar)  [Temperature = 298.15 K]
USER    
USER    (1) Final Intermolecular Energy     =   -7.20 kcal/mol
USER        vdW + Hbond + desolv Energy     =   -6.48 kcal/mol
USER        Electrostatic Energy            =   -0.72 kcal/mol
USER    (2) Final Total Internal Energy     =   -0.48 kcal/mol
USER    (3) Torsional Free Energy           =   +0.60 kcal/mol
USER    (4) Unbound System's Energy  [=(2)] =   -0.48 kcal/mol
USER    
USER    
USER  
USER    DPF = C:/Users/lam16/Documents/Cours/2025/projet-long/martini_to_allatom/docking/ADT_TM/indatraline/open_tm.dpf
USER    NEWDPF move	indatraline.pdbqt
USER    NEWDPF about	-3.370000 1.923000 0.102000
USER    NEWDPF tran0	61.321116 29.481876 56.182752
USER    NEWDPF axisangle0	0.644548 0.731502 -0.222400 -133.376844
USER    NEWDPF quaternion0	0.591932 0.671787 -0.204245 -0.395731
USER    NEWDPF dihe0	2.93 28.54 
USER  
USER                              x       y       z    vdW   Elec        q     RMS 
ATOM      1  C   UNL d   1      60.812  29.215  56.535 -0.35 -0.03    +0.046    89.164
ATOM      2  C   UNL d   1      62.324  29.639  58.458 -0.26 -0.15    +0.204    89.164
ATOM      3  C   UNL d   1      61.174  30.249  57.626 -0.43 -0.03    +0.043    89.164
ATOM      4  C   UNL d   1      62.153  28.570  56.301 -0.36 +0.01    -0.021    89.164
ATOM      5  C   UNL d   1      63.003  28.800  57.397 -0.26 -0.00    +0.002    89.164
ATOM      6  C   UNL d   1      62.558  27.768  55.242 -0.32 +0.00    -0.004    89.164
ATOM      7  C   UNL d   1      64.277  28.250  57.436 -0.15 +0.00    -0.003    89.164
ATOM      8  C   UNL d   1      63.840  27.218  55.272 -0.22 +0.00    -0.000    89.164
ATOM      9  C   UNL d   1      64.693  27.456  56.359 -0.12 +0.00    -0.000    89.164
ATOM     10  C   UNL d   1      60.147  29.848  55.330 -0.46 +0.01    -0.018    89.164
ATOM     11  C   UNL d   1      60.893  30.356  54.252 -0.33 -0.01    +0.008    89.164
ATOM     12  C   UNL d   1      60.261  30.980  53.170 -0.33 -0.05    +0.068    89.164
ATOM     13 CL   UNL d   1      61.260  31.602  51.905 -0.42 +0.06    -0.082    89.164
ATOM     14  C   UNL d   1      58.868  31.091  53.147 -0.34 -0.05    +0.068    89.164
ATOM     15 CL   UNL d   1      58.017  31.852  51.851 -0.45 +0.07    -0.082    89.164
ATOM     16  C   UNL d   1      58.115  30.574  54.205 -0.46 -0.01    +0.012    89.164
ATOM     17  C   UNL d   1      58.751  29.959  55.287 -0.51 +0.00    -0.003    89.164
ATOM     18  N   UNL d   1      61.874  28.796  59.566 -0.34 +0.03    -0.041    89.164
ATOM     19  C   UNL d   1      61.179  29.548  60.602 -0.33 -0.14    +0.242    89.164
ATOM     20  H   UNL d   1      61.242  28.085  59.199 -0.06 -0.23    +0.279    89.164
ATOM     21  H   UNL d   1      62.703  28.380  59.992 +0.04 -0.21    +0.279    89.164
TER
ENDMDL


AVSFLD: # AVS field file
AVSFLD: #
AVSFLD: # Created by AutoDock
AVSFLD: #
AVSFLD: ndim=2           # number of dimensions in the field
AVSFLD: nspace=1         # number of physical coordinates
AVSFLD: veclen=7         # vector size
AVSFLD: dim1=21          # atoms
AVSFLD: dim2=10          # conformations
AVSFLD: data=Real       # data type (byte,integer,Real,double)
AVSFLD: field=uniform    # field coordinate layout
AVSFLD: label= x y z vdW Elec q RMS
AVSFLD: variable 1 file = C:/Users/lam16/Documents/Cours/2025/projet-long/martini_to_allatom/docking/ADT_TM/indatraline/open_tm.dlg.pdb filetype = ascii offset = 5 stride = 12
AVSFLD: variable 2 file = C:/Users/lam16/Documents/Cours/2025/projet-long/martini_to_allatom/docking/ADT_TM/indatraline/open_tm.dlg.pdb filetype = ascii offset = 6 stride = 12
AVSFLD: variable 3 file = C:/Users/lam16/Documents/Cours/2025/projet-long/martini_to_allatom/docking/ADT_TM/indatraline/open_tm.dlg.pdb filetype = ascii offset = 7 stride = 12
AVSFLD: variable 4 file = C:/Users/lam16/Documents/Cours/2025/projet-long/martini_to_allatom/docking/ADT_TM/indatraline/open_tm.dlg.pdb filetype = ascii offset = 8 stride = 12
AVSFLD: variable 5 file = C:/Users/lam16/Documents/Cours/2025/projet-long/martini_to_allatom/docking/ADT_TM/indatraline/open_tm.dlg.pdb filetype = ascii offset = 9 stride = 12
AVSFLD: variable 6 file = C:/Users/lam16/Documents/Cours/2025/projet-long/martini_to_allatom/docking/ADT_TM/indatraline/open_tm.dlg.pdb filetype = ascii offset = 10 stride = 12
AVSFLD: variable 7 file = C:/Users/lam16/Documents/Cours/2025/projet-long/martini_to_allatom/docking/ADT_TM/indatraline/open_tm.dlg.pdb filetype = ascii offset = 11 stride = 12
AVSFLD: # end of file

>>> Closing the docking parameter file (DPF)...
This docking finished at:			12:10 28" p.m., 06/22/2025


________________________________________________________________________________

C:/Program Files (x86)/The Scripps Research Institute/Autodock/4.2.6/autodock4.exe: Successful Completion on "ANTEC-LOUISE"

Real= 4m 38.60s,  CPU= 4m 32.49s,  System= 2.38s
________________________________________________________________________________

