MODEL 1
REMARK VINA RESULT:    -7.499      0.000      0.000
REMARK INTER + INTRA:          -8.866
REMARK INTER:                  -8.595
REMARK INTRA:                  -0.271
REMARK UNBOUND:                -0.271
REMARK  3 active torsions:
REMARK  status: ('A' for Active; 'I' for Inactive)
REMARK    1  A    between atoms: N_1  and  C_10 
REMARK    2  A    between atoms: C_4  and  C_10 
REMARK    3  A    between atoms: C_17  and  C_19 
ROOT
ATOM      1  C   UNL d   1      58.509  32.463  49.813  0.00  0.00     0.006 C 
ATOM      2  C   UNL d   1      59.044  33.256  48.545  0.00  0.00     0.019 C 
ATOM      3  C   UNL d   1      59.555  31.468  50.498  0.00  0.00     0.029 C 
ATOM      4  C   UNL d   1      60.592  33.337  48.577  0.00  0.00     0.004 C 
ATOM      5  C   UNL d   1      60.542  30.922  49.441  0.00  0.00     0.002 C 
ATOM      6  C   UNL d   1      57.825  33.366  50.857  0.00  0.00     0.005 C 
ATOM      7  C   UNL d   1      61.307  31.997  48.685  0.00  0.00     0.000 C 
ATOM      8  C   UNL d   1      58.457  34.678  48.387  0.00  0.00    -0.027 A 
ATOM      9  C   UNL d   1      56.791  34.293  50.252  0.00  0.00     0.026 C 
ATOM     10  C   UNL d   1      58.595  32.487  47.268  0.00  0.00     0.004 C 
ATOM     11  C   UNL d   1      58.764  30.247  51.041  0.00  0.00     0.002 C 
ATOM     12  C   UNL d   1      57.403  35.150  49.185  0.00  0.00    -0.026 A 
ATOM     13  C   UNL d   1      58.930  35.531  47.368  0.00  0.00    -0.005 A 
ATOM     14  C   UNL d   1      56.849  36.424  48.954  0.00  0.00    -0.009 A 
ATOM     15  C   UNL d   1      57.329  37.259  47.937  0.00  0.00    -0.023 A 
ATOM     16  C   UNL d   1      58.385  36.798  47.154  0.00  0.00    -0.005 A 
ENDROOT
BRANCH   3  17
ATOM     17  C   UNL d   1      60.319  32.135  51.693  0.00  0.00     0.205 C 
BRANCH  17  18
ATOM     18  N   UNL d   1      60.090  31.554  53.014  0.00  0.00    -0.064 N 
ATOM     19  H   UNL d   1      60.141  30.537  52.952  0.00  0.00     0.275 HD
ATOM     20  H   UNL d   1      59.168  31.828  53.352  0.00  0.00     0.275 HD
ATOM     21  H   UNL d   1      60.804  31.890  53.662  0.00  0.00     0.275 HD
ENDBRANCH  17  18
ENDBRANCH   3  17
BRANCH  15  22
ATOM     22  C   UNL d   1      56.682  38.606  47.682  0.00  0.00     0.022 C 
ATOM     23  C   UNL d   1      57.501  39.458  46.711  0.00  0.00     0.005 C 
ATOM     24  C   UNL d   1      55.247  38.426  47.180  0.00  0.00     0.005 C 
ENDBRANCH  15  22
TORSDOF 3

ENDMDL
MODEL 2
REMARK VINA RESULT:    -6.926     62.561     65.359
REMARK INTER + INTRA:          -8.210
REMARK INTER:                  -7.927
REMARK INTRA:                  -0.283
REMARK UNBOUND:                -0.271
REMARK  3 active torsions:
REMARK  status: ('A' for Active; 'I' for Inactive)
REMARK    1  A    between atoms: N_1  and  C_10 
REMARK    2  A    between atoms: C_4  and  C_10 
REMARK    3  A    between atoms: C_17  and  C_19 
ROOT
ATOM      1  C   UNL d   1      52.853  20.095 112.349  0.00  0.00     0.006 C 
ATOM      2  C   UNL d   1      51.837  20.965 111.492  0.00  0.00     0.019 C 
ATOM      3  C   UNL d   1      54.352  20.043 111.798  0.00  0.00     0.029 C 
ATOM      4  C   UNL d   1      52.606  22.016 110.651  0.00  0.00     0.004 C 
ATOM      5  C   UNL d   1      54.361  20.186 110.259  0.00  0.00     0.002 C 
ATOM      6  C   UNL d   1      52.818  20.419 113.854  0.00  0.00     0.005 C 
ATOM      7  C   UNL d   1      53.692  21.451 109.744  0.00  0.00     0.000 C 
ATOM      8  C   UNL d   1      50.741  21.672 112.323  0.00  0.00    -0.027 A 
ATOM      9  C   UNL d   1      51.414  20.433 114.425  0.00  0.00     0.026 C 
ATOM     10  C   UNL d   1      51.066  20.007 110.536  0.00  0.00     0.004 C 
ATOM     11  C   UNL d   1      54.926  18.636 112.118  0.00  0.00     0.002 C 
ATOM     12  C   UNL d   1      50.550  21.413 113.690  0.00  0.00    -0.026 A 
ATOM     13  C   UNL d   1      49.843  22.563 111.701  0.00  0.00    -0.005 A 
ATOM     14  C   UNL d   1      49.490  22.023 114.389  0.00  0.00    -0.009 A 
ATOM     15  C   UNL d   1      48.606  22.906 113.757  0.00  0.00    -0.023 A 
ATOM     16  C   UNL d   1      48.804  23.174 112.404  0.00  0.00    -0.005 A 
ENDROOT
BRANCH   3  17
ATOM     17  C   UNL d   1      55.273  21.118 112.470  0.00  0.00     0.205 C 
BRANCH  17  18
ATOM     18  N   UNL d   1      56.457  20.616 113.166  0.00  0.00    -0.064 N 
ATOM     19  H   UNL d   1      56.429  19.596 113.192  0.00  0.00     0.275 HD
ATOM     20  H   UNL d   1      56.472  20.980 114.119  0.00  0.00     0.275 HD
ATOM     21  H   UNL d   1      57.296  20.920 112.672  0.00  0.00     0.275 HD
ENDBRANCH  17  18
ENDBRANCH   3  17
BRANCH  15  22
ATOM     22  C   UNL d   1      47.448  23.510 114.524  0.00  0.00     0.022 C 
ATOM     23  C   UNL d   1      47.157  22.743 115.816  0.00  0.00     0.005 C 
ATOM     24  C   UNL d   1      47.707  24.992 114.812  0.00  0.00     0.005 C 
ENDBRANCH  15  22
TORSDOF 3

ENDMDL
MODEL 3
REMARK VINA RESULT:    -6.917     76.703     77.881
REMARK INTER + INTRA:          -8.200
REMARK INTER:                  -7.899
REMARK INTRA:                  -0.301
REMARK UNBOUND:                -0.271
REMARK  3 active torsions:
REMARK  status: ('A' for Active; 'I' for Inactive)
REMARK    1  A    between atoms: N_1  and  C_10 
REMARK    2  A    between atoms: C_4  and  C_10 
REMARK    3  A    between atoms: C_17  and  C_19 
ROOT
ATOM      1  C   UNL d   1      55.854  74.773 113.650  0.00  0.00     0.006 C 
ATOM      2  C   UNL d   1      55.587  74.314 115.148  0.00  0.00     0.019 C 
ATOM      3  C   UNL d   1      56.116  73.594 112.604  0.00  0.00     0.029 C 
ATOM      4  C   UNL d   1      55.081  72.849 115.178  0.00  0.00     0.004 C 
ATOM      5  C   UNL d   1      56.779  72.390 113.311  0.00  0.00     0.002 C 
ATOM      6  C   UNL d   1      54.810  75.773 113.121  0.00  0.00     0.005 C 
ATOM      7  C   UNL d   1      55.983  71.838 114.483  0.00  0.00     0.000 C 
ATOM      8  C   UNL d   1      54.602  75.217 115.926  0.00  0.00    -0.027 A 
ATOM      9  C   UNL d   1      54.565  76.932 114.066  0.00  0.00     0.026 C 
ATOM     10  C   UNL d   1      56.931  74.411 115.930  0.00  0.00     0.004 C 
ATOM     11  C   UNL d   1      57.138  74.111 111.553  0.00  0.00     0.002 C 
ATOM     12  C   UNL d   1      54.135  76.437 115.414  0.00  0.00    -0.026 A 
ATOM     13  C   UNL d   1      54.193  74.860 117.228  0.00  0.00    -0.005 A 
ATOM     14  C   UNL d   1      53.300  77.263 116.191  0.00  0.00    -0.009 A 
ATOM     15  C   UNL d   1      52.902  76.896 117.483  0.00  0.00    -0.023 A 
ATOM     16  C   UNL d   1      53.353  75.678 117.986  0.00  0.00    -0.005 A 
ENDROOT
BRANCH   3  17
ATOM     17  C   UNL d   1      54.811  73.160 111.852  0.00  0.00     0.205 C 
BRANCH  17  18
ATOM     18  N   UNL d   1      54.917  71.984 110.992  0.00  0.00    -0.064 N 
ATOM     19  H   UNL d   1      54.066  71.426 111.073  0.00  0.00     0.275 HD
ATOM     20  H   UNL d   1      55.719  71.423 111.279  0.00  0.00     0.275 HD
ATOM     21  H   UNL d   1      55.038  72.280 110.024  0.00  0.00     0.275 HD
ENDBRANCH  17  18
ENDBRANCH   3  17
BRANCH  15  22
ATOM     22  C   UNL d   1      52.040  77.827 118.312  0.00  0.00     0.022 C 
ATOM     23  C   UNL d   1      52.781  78.341 119.548  0.00  0.00     0.005 C 
ATOM     24  C   UNL d   1      51.525  78.989 117.457  0.00  0.00     0.005 C 
ENDBRANCH  15  22
TORSDOF 3

ENDMDL
MODEL 4
REMARK VINA RESULT:    -6.779     61.333     64.302
REMARK INTER + INTRA:          -8.041
REMARK INTER:                  -7.751
REMARK INTRA:                  -0.290
REMARK UNBOUND:                -0.271
REMARK  3 active torsions:
REMARK  status: ('A' for Active; 'I' for Inactive)
REMARK    1  A    between atoms: N_1  and  C_10 
REMARK    2  A    between atoms: C_4  and  C_10 
REMARK    3  A    between atoms: C_17  and  C_19 
ROOT
ATOM      1  C   UNL d   1      49.476  23.004 109.648  0.00  0.00     0.006 C 
ATOM      2  C   UNL d   1      48.970  22.509 111.070  0.00  0.00     0.019 C 
ATOM      3  C   UNL d   1      48.617  24.175 108.980  0.00  0.00     0.029 C 
ATOM      4  C   UNL d   1      48.125  23.614 111.755  0.00  0.00     0.004 C 
ATOM      5  C   UNL d   1      47.142  24.079 109.431  0.00  0.00     0.002 C 
ATOM      6  C   UNL d   1      50.983  23.319 109.609  0.00  0.00     0.005 C 
ATOM      7  C   UNL d   1      46.945  24.124 110.938  0.00  0.00     0.000 C 
ATOM      8  C   UNL d   1      50.098  22.056 112.027  0.00  0.00    -0.027 A 
ATOM      9  C   UNL d   1      51.836  22.211 110.193  0.00  0.00     0.026 C 
ATOM     10  C   UNL d   1      48.087  21.244 110.856  0.00  0.00     0.004 C 
ATOM     11  C   UNL d   1      48.628  23.952 107.442  0.00  0.00     0.002 C 
ATOM     12  C   UNL d   1      51.430  21.916 111.606  0.00  0.00    -0.026 A 
ATOM     13  C   UNL d   1      49.797  21.698 113.357  0.00  0.00    -0.005 A 
ATOM     14  C   UNL d   1      52.409  21.426 112.492  0.00  0.00    -0.009 A 
ATOM     15  C   UNL d   1      52.095  21.075 113.811  0.00  0.00    -0.023 A 
ATOM     16  C   UNL d   1      50.777  21.227 114.233  0.00  0.00    -0.005 A 
ENDROOT
BRANCH   3  17
ATOM     17  C   UNL d   1      49.209  25.595 109.278  0.00  0.00     0.205 C 
BRANCH  17  18
ATOM     18  N   UNL d   1      48.867  26.654 108.331  0.00  0.00    -0.064 N 
ATOM     19  H   UNL d   1      47.952  26.462 107.923  0.00  0.00     0.275 HD
ATOM     20  H   UNL d   1      49.568  26.689 107.591  0.00  0.00     0.275 HD
ATOM     21  H   UNL d   1      48.840  27.550 108.818  0.00  0.00     0.275 HD
ENDBRANCH  17  18
ENDBRANCH   3  17
BRANCH  15  22
ATOM     22  C   UNL d   1      53.161  20.507 114.727  0.00  0.00     0.022 C 
ATOM     23  C   UNL d   1      52.758  19.146 115.297  0.00  0.00     0.005 C 
ATOM     24  C   UNL d   1      54.506  20.421 113.999  0.00  0.00     0.005 C 
ENDBRANCH  15  22
TORSDOF 3

ENDMDL
MODEL 5
REMARK VINA RESULT:    -6.569     64.486     65.868
REMARK INTER + INTRA:          -7.800
REMARK INTER:                  -7.529
REMARK INTRA:                  -0.271
REMARK UNBOUND:                -0.271
REMARK  3 active torsions:
REMARK  status: ('A' for Active; 'I' for Inactive)
REMARK    1  A    between atoms: N_1  and  C_10 
REMARK    2  A    between atoms: C_4  and  C_10 
REMARK    3  A    between atoms: C_17  and  C_19 
ROOT
ATOM      1  C   UNL d   1      57.660  68.399 104.981  0.00  0.00     0.006 C 
ATOM      2  C   UNL d   1      58.927  67.616 105.535  0.00  0.00     0.019 C 
ATOM      3  C   UNL d   1      57.756  68.876 103.459  0.00  0.00     0.029 C 
ATOM      4  C   UNL d   1      59.726  66.990 104.363  0.00  0.00     0.004 C 
ATOM      5  C   UNL d   1      59.227  69.154 103.077  0.00  0.00     0.002 C 
ATOM      6  C   UNL d   1      56.326  67.685 105.264  0.00  0.00     0.005 C 
ATOM      7  C   UNL d   1      60.160  67.970 103.281  0.00  0.00     0.000 C 
ATOM      8  C   UNL d   1      58.595  66.520 106.575  0.00  0.00    -0.027 A 
ATOM      9  C   UNL d   1      56.177  67.256 106.710  0.00  0.00     0.026 C 
ATOM     10  C   UNL d   1      59.832  68.632 106.291  0.00  0.00     0.004 C 
ATOM     11  C   UNL d   1      57.001  70.229 103.337  0.00  0.00     0.002 C 
ATOM     12  C   UNL d   1      57.311  66.364 107.120  0.00  0.00    -0.026 A 
ATOM     13  C   UNL d   1      59.613  65.676 107.064  0.00  0.00    -0.005 A 
ATOM     14  C   UNL d   1      57.074  65.403 108.121  0.00  0.00    -0.009 A 
ATOM     15  C   UNL d   1      58.095  64.572 108.597  0.00  0.00    -0.023 A 
ATOM     16  C   UNL d   1      59.367  64.716 108.047  0.00  0.00    -0.005 A 
ENDROOT
BRANCH   3  17
ATOM     17  C   UNL d   1      57.099  67.853 102.470  0.00  0.00     0.205 C 
BRANCH  17  18
ATOM     18  N   UNL d   1      56.332  68.420 101.363  0.00  0.00    -0.064 N 
ATOM     19  H   UNL d   1      56.852  68.302 100.493  0.00  0.00     0.275 HD
ATOM     20  H   UNL d   1      56.173  69.413 101.532  0.00  0.00     0.275 HD
ATOM     21  H   UNL d   1      55.435  67.939 101.289  0.00  0.00     0.275 HD
ENDBRANCH  17  18
ENDBRANCH   3  17
BRANCH  15  22
ATOM     22  C   UNL d   1      57.820  63.578 109.709  0.00  0.00     0.022 C 
ATOM     23  C   UNL d   1      58.657  62.307 109.557  0.00  0.00     0.005 C 
ATOM     24  C   UNL d   1      58.046  64.226 111.077  0.00  0.00     0.005 C 
ENDBRANCH  15  22
TORSDOF 3

ENDMDL
MODEL 6
REMARK VINA RESULT:    -6.536     81.063     83.623
REMARK INTER + INTRA:          -7.763
REMARK INTER:                  -7.473
REMARK INTRA:                  -0.290
REMARK UNBOUND:                -0.271
REMARK  3 active torsions:
REMARK  status: ('A' for Active; 'I' for Inactive)
REMARK    1  A    between atoms: N_1  and  C_10 
REMARK    2  A    between atoms: C_4  and  C_10 
REMARK    3  A    between atoms: C_17  and  C_19 
ROOT
ATOM      1  C   UNL d   1      55.937  35.188 131.431  0.00  0.00     0.006 C 
ATOM      2  C   UNL d   1      55.854  34.622 132.914  0.00  0.00     0.019 C 
ATOM      3  C   UNL d   1      57.382  35.681 130.961  0.00  0.00     0.029 C 
ATOM      4  C   UNL d   1      57.251  34.144 133.385  0.00  0.00     0.004 C 
ATOM      5  C   UNL d   1      58.189  36.201 132.172  0.00  0.00     0.002 C 
ATOM      6  C   UNL d   1      55.291  34.260 130.385  0.00  0.00     0.005 C 
ATOM      7  C   UNL d   1      58.357  35.188 133.293  0.00  0.00     0.000 C 
ATOM      8  C   UNL d   1      54.827  33.482 133.106  0.00  0.00    -0.027 A 
ATOM      9  C   UNL d   1      53.899  33.806 130.774  0.00  0.00     0.026 C 
ATOM     10  C   UNL d   1      55.362  35.771 133.843  0.00  0.00     0.004 C 
ATOM     11  C   UNL d   1      57.182  36.891 130.006  0.00  0.00     0.002 C 
ATOM     12  C   UNL d   1      53.917  33.112 132.103  0.00  0.00    -0.026 A 
ATOM     13  C   UNL d   1      54.732  32.816 134.345  0.00  0.00    -0.005 A 
ATOM     14  C   UNL d   1      52.949  32.119 132.350  0.00  0.00    -0.009 A 
ATOM     15  C   UNL d   1      52.866  31.467 133.586  0.00  0.00    -0.023 A 
ATOM     16  C   UNL d   1      53.778  31.823 134.577  0.00  0.00    -0.005 A 
ENDROOT
BRANCH   3  17
ATOM     17  C   UNL d   1      58.172  34.568 130.191  0.00  0.00     0.205 C 
BRANCH  17  18
ATOM     18  N   UNL d   1      59.581  34.842 129.919  0.00  0.00    -0.064 N 
ATOM     19  H   UNL d   1      60.019  35.235 130.754  0.00  0.00     0.275 HD
ATOM     20  H   UNL d   1      59.657  35.509 129.151  0.00  0.00     0.275 HD
ATOM     21  H   UNL d   1      60.054  33.975 129.665  0.00  0.00     0.275 HD
ENDBRANCH  17  18
ENDBRANCH   3  17
BRANCH  15  22
ATOM     22  C   UNL d   1      51.783  30.436 133.838  0.00  0.00     0.022 C 
ATOM     23  C   UNL d   1      51.483  29.608 132.587  0.00  0.00     0.005 C 
ATOM     24  C   UNL d   1      52.162  29.535 135.016  0.00  0.00     0.005 C 
ENDBRANCH  15  22
TORSDOF 3

ENDMDL
MODEL 7
REMARK VINA RESULT:    -6.444     67.120     68.334
REMARK INTER + INTRA:          -7.657
REMARK INTER:                  -7.445
REMARK INTRA:                  -0.211
REMARK UNBOUND:                -0.271
REMARK  3 active torsions:
REMARK  status: ('A' for Active; 'I' for Inactive)
REMARK    1  A    between atoms: N_1  and  C_10 
REMARK    2  A    between atoms: C_4  and  C_10 
REMARK    3  A    between atoms: C_17  and  C_19 
ROOT
ATOM      1  C   UNL d   1      58.817  65.566 108.981  0.00  0.00     0.006 C 
ATOM      2  C   UNL d   1      58.487  66.885 109.803  0.00  0.00     0.019 C 
ATOM      3  C   UNL d   1      59.355  64.332 109.842  0.00  0.00     0.029 C 
ATOM      4  C   UNL d   1      58.212  66.536 111.288  0.00  0.00     0.004 C 
ATOM      5  C   UNL d   1      60.127  64.842 111.080  0.00  0.00     0.002 C 
ATOM      6  C   UNL d   1      57.684  65.137 108.030  0.00  0.00     0.005 C 
ATOM      7  C   UNL d   1      59.321  65.759 111.986  0.00  0.00     0.000 C 
ATOM      8  C   UNL d   1      57.306  67.709 109.240  0.00  0.00    -0.027 A 
ATOM      9  C   UNL d   1      57.177  66.270 107.162  0.00  0.00     0.026 C 
ATOM     10  C   UNL d   1      59.720  67.831 109.715  0.00  0.00     0.004 C 
ATOM     11  C   UNL d   1      60.377  63.554 108.969  0.00  0.00     0.002 C 
ATOM     12  C   UNL d   1      56.705  67.416 108.005  0.00  0.00    -0.026 A 
ATOM     13  C   UNL d   1      56.837  68.842 109.937  0.00  0.00    -0.005 A 
ATOM     14  C   UNL d   1      55.683  68.242 107.497  0.00  0.00    -0.009 A 
ATOM     15  C   UNL d   1      55.228  69.364 108.200  0.00  0.00    -0.023 A 
ATOM     16  C   UNL d   1      55.814  69.646 109.432  0.00  0.00    -0.005 A 
ENDROOT
BRANCH   3  17
ATOM     17  C   UNL d   1      58.208  63.348 110.257  0.00  0.00     0.205 C 
BRANCH  17  18
ATOM     18  N   UNL d   1      58.145  62.081 109.531  0.00  0.00    -0.064 N 
ATOM     19  H   UNL d   1      57.441  62.146 108.795  0.00  0.00     0.275 HD
ATOM     20  H   UNL d   1      57.894  61.331 110.175  0.00  0.00     0.275 HD
ATOM     21  H   UNL d   1      59.054  61.882 109.113  0.00  0.00     0.275 HD
ENDBRANCH  17  18
ENDBRANCH   3  17
BRANCH  15  22
ATOM     22  C   UNL d   1      54.159  70.259 107.605  0.00  0.00     0.022 C 
ATOM     23  C   UNL d   1      54.726  71.187 106.529  0.00  0.00     0.005 C 
ATOM     24  C   UNL d   1      53.002  69.422 107.055  0.00  0.00     0.005 C 
ENDBRANCH  15  22
TORSDOF 3

ENDMDL
MODEL 8
REMARK VINA RESULT:    -6.413     58.199     61.102
REMARK INTER + INTRA:          -7.622
REMARK INTER:                  -7.350
REMARK INTRA:                  -0.273
REMARK UNBOUND:                -0.271
REMARK  3 active torsions:
REMARK  status: ('A' for Active; 'I' for Inactive)
REMARK    1  A    between atoms: N_1  and  C_10 
REMARK    2  A    between atoms: C_4  and  C_10 
REMARK    3  A    between atoms: C_17  and  C_19 
ROOT
ATOM      1  C   UNL d   1      47.491  23.915 107.508  0.00  0.00     0.006 C 
ATOM      2  C   UNL d   1      48.450  24.417 108.671  0.00  0.00     0.019 C 
ATOM      3  C   UNL d   1      46.735  25.063 106.693  0.00  0.00     0.029 C 
ATOM      4  C   UNL d   1      48.888  25.881 108.411  0.00  0.00     0.004 C 
ATOM      5  C   UNL d   1      46.487  26.288 107.602  0.00  0.00     0.002 C 
ATOM      6  C   UNL d   1      48.156  22.898 106.562  0.00  0.00     0.005 C 
ATOM      7  C   UNL d   1      47.748  26.873 108.220  0.00  0.00     0.000 C 
ATOM      8  C   UNL d   1      49.702  23.536 108.891  0.00  0.00    -0.027 A 
ATOM      9  C   UNL d   1      48.847  21.767 107.296  0.00  0.00     0.026 C 
ATOM     10  C   UNL d   1      47.663  24.345 110.012  0.00  0.00     0.004 C 
ATOM     11  C   UNL d   1      45.337  24.517 106.291  0.00  0.00     0.002 C 
ATOM     12  C   UNL d   1      49.875  22.300 108.248  0.00  0.00    -0.026 A 
ATOM     13  C   UNL d   1      50.692  23.930 109.816  0.00  0.00    -0.005 A 
ATOM     14  C   UNL d   1      50.995  21.496 108.538  0.00  0.00    -0.009 A 
ATOM     15  C   UNL d   1      51.969  21.900 109.460  0.00  0.00    -0.023 A 
ATOM     16  C   UNL d   1      51.806  23.133 110.087  0.00  0.00    -0.005 A 
ENDROOT
BRANCH   3  17
ATOM     17  C   UNL d   1      47.500  25.472 105.388  0.00  0.00     0.205 C 
BRANCH  17  18
ATOM     18  N   UNL d   1      47.047  26.693 104.725  0.00  0.00    -0.064 N 
ATOM     19  H   UNL d   1      46.594  26.453 103.843  0.00  0.00     0.275 HD
ATOM     20  H   UNL d   1      47.848  27.299 104.542  0.00  0.00     0.275 HD
ATOM     21  H   UNL d   1      46.382  27.180 105.326  0.00  0.00     0.275 HD
ENDBRANCH  17  18
ENDBRANCH   3  17
BRANCH  15  22
ATOM     22  C   UNL d   1      53.138  20.993 109.785  0.00  0.00     0.022 C 
ATOM     23  C   UNL d   1      54.085  20.833 108.594  0.00  0.00     0.005 C 
ATOM     24  C   UNL d   1      53.889  21.504 111.019  0.00  0.00     0.005 C 
ENDBRANCH  15  22
TORSDOF 3

ENDMDL
MODEL 9
REMARK VINA RESULT:    -6.253     68.057     69.305
REMARK INTER + INTRA:          -7.438
REMARK INTER:                  -7.149
REMARK INTRA:                  -0.289
REMARK UNBOUND:                -0.271
REMARK  3 active torsions:
REMARK  status: ('A' for Active; 'I' for Inactive)
REMARK    1  A    between atoms: N_1  and  C_10 
REMARK    2  A    between atoms: C_4  and  C_10 
REMARK    3  A    between atoms: C_17  and  C_19 
ROOT
ATOM      1  C   UNL d   1      58.731  64.668 110.122  0.00  0.00     0.006 C 
ATOM      2  C   UNL d   1      58.290  65.910 109.236  0.00  0.00     0.019 C 
ATOM      3  C   UNL d   1      59.936  63.796 109.538  0.00  0.00     0.029 C 
ATOM      4  C   UNL d   1      59.453  66.348 108.309  0.00  0.00     0.004 C 
ATOM      5  C   UNL d   1      59.932  63.847 107.994  0.00  0.00     0.002 C 
ATOM      6  C   UNL d   1      58.959  65.022 111.604  0.00  0.00     0.005 C 
ATOM      7  C   UNL d   1      60.015  65.251 107.414  0.00  0.00     0.000 C 
ATOM      8  C   UNL d   1      57.791  67.129 110.047  0.00  0.00    -0.027 A 
ATOM      9  C   UNL d   1      57.815  65.811 112.208  0.00  0.00     0.026 C 
ATOM     10  C   UNL d   1      57.073  65.477 108.366  0.00  0.00     0.004 C 
ATOM     11  C   UNL d   1      59.686  62.315 109.935  0.00  0.00     0.002 C 
ATOM     12  C   UNL d   1      57.569  67.070 111.432  0.00  0.00    -0.026 A 
ATOM     13  C   UNL d   1      57.475  68.336 109.390  0.00  0.00    -0.005 A 
ATOM     14  C   UNL d   1      57.040  68.182 112.116  0.00  0.00    -0.009 A 
ATOM     15  C   UNL d   1      56.730  69.374 111.450  0.00  0.00    -0.023 A 
ATOM     16  C   UNL d   1      56.964  69.438 110.078  0.00  0.00    -0.005 A 
ENDROOT
BRANCH   3  17
ATOM     17  C   UNL d   1      61.325  64.235 110.115  0.00  0.00     0.205 C 
BRANCH  17  18
ATOM     18  N   UNL d   1      62.504  63.621 109.509  0.00  0.00    -0.064 N 
ATOM     19  H   UNL d   1      62.742  64.117 108.649  0.00  0.00     0.275 HD
ATOM     20  H   UNL d   1      62.307  62.644 109.293  0.00  0.00     0.275 HD
ATOM     21  H   UNL d   1      63.289  63.674 110.158  0.00  0.00     0.275 HD
ENDBRANCH  17  18
ENDBRANCH   3  17
BRANCH  15  22
ATOM     22  C   UNL d   1      56.120  70.538 112.206  0.00  0.00     0.022 C 
ATOM     23  C   UNL d   1      54.592  70.467 112.224  0.00  0.00     0.005 C 
ATOM     24  C   UNL d   1      56.684  70.611 113.627  0.00  0.00     0.005 C 
ENDBRANCH  15  22
TORSDOF 3

ENDMDL
