MODEL 1
REMARK VINA RESULT:    -7.716      0.000      0.000
REMARK INTER + INTRA:          -9.026
REMARK INTER:                  -8.619
REMARK INTRA:                  -0.407
REMARK UNBOUND:                -0.407
REMARK  2 active torsions:
REMARK  status: ('A' for Active; 'I' for Inactive)
REMARK    1  A    between atoms: C_6  and  N_3 
REMARK    2  A    between atoms: C_4  and  C_10 
ROOT
ATOM      1  C   UNL d   1      48.064  61.533  67.321  0.00  0.00     0.044 C 
ATOM      2  C   UNL d   1      48.245  60.257  68.150  0.00  0.00     0.011 C 
ATOM      3  C   UNL d   1      45.900  59.413  67.582  0.00  0.00     0.203 C 
ATOM      4  C   UNL d   1      47.412  59.106  67.612  0.00  0.00     0.035 C 
ATOM      5  C   UNL d   1      46.602  61.835  67.036  0.00  0.00    -0.021 A 
ATOM      6  C   UNL d   1      45.593  60.852  67.148  0.00  0.00     0.002 A 
ATOM      7  C   UNL d   1      46.272  63.143  66.624  0.00  0.00    -0.004 A 
ATOM      8  C   UNL d   1      44.262  61.251  66.908  0.00  0.00    -0.003 A 
ATOM      9  C   UNL d   1      44.957  63.494  66.338  0.00  0.00    -0.000 A 
ATOM     10  C   UNL d   1      43.949  62.549  66.492  0.00  0.00    -0.000 A 
ENDROOT
BRANCH   1  11
ATOM     11  C   UNL d   1      48.934  61.528  66.065  0.00  0.00    -0.018 A 
ATOM     12  C   UNL d   1      50.300  61.222  66.171  0.00  0.00     0.008 A 
ATOM     13  C   UNL d   1      51.121  61.199  65.039  0.00  0.00     0.068 A 
ATOM     14 CL   UNL d   1      52.792  60.818  65.267  0.00  0.00    -0.082 Cl
ATOM     15  C   UNL d   1      50.581  61.475  63.778  0.00  0.00     0.068 A 
ATOM     16 CL   UNL d   1      51.528  61.446  62.335  0.00  0.00    -0.082 Cl
ATOM     17  C   UNL d   1      49.224  61.788  63.660  0.00  0.00     0.012 A 
ATOM     18  C   UNL d   1      48.409  61.814  64.795  0.00  0.00    -0.003 A 
ENDBRANCH   1  11
BRANCH   3  19
ATOM     19  N   UNL d   1      45.253  58.431  66.686  0.00  0.00    -0.041 N 
ATOM     20  C   UNL d   1      44.365  57.494  67.363  0.00  0.00     0.242 C 
ATOM     21  H   UNL d   1      45.985  57.896  66.219  0.00  0.00     0.279 HD
ATOM     22  H   UNL d   1      44.675  58.964  66.038  0.00  0.00     0.279 HD
ENDBRANCH   3  19
TORSDOF 2

ENDMDL
MODEL 2
REMARK VINA RESULT:    -7.567     28.630     30.249
REMARK INTER + INTRA:          -8.859
REMARK INTER:                  -8.090
REMARK INTRA:                  -0.769
REMARK UNBOUND:                -0.407
REMARK  2 active torsions:
REMARK  status: ('A' for Active; 'I' for Inactive)
REMARK    1  A    between atoms: C_6  and  N_3 
REMARK    2  A    between atoms: C_4  and  C_10 
ROOT
ATOM      1  C   UNL d   1      37.550  66.784  93.094  0.00  0.00     0.044 C 
ATOM      2  C   UNL d   1      38.536  67.958  93.128  0.00  0.00     0.011 C 
ATOM      3  C   UNL d   1      37.973  68.654  90.733  0.00  0.00     0.203 C 
ATOM      4  C   UNL d   1      38.106  69.088  92.207  0.00  0.00     0.035 C 
ATOM      5  C   UNL d   1      37.168  66.391  91.676  0.00  0.00    -0.021 A 
ATOM      6  C   UNL d   1      37.354  67.258  90.577  0.00  0.00     0.002 A 
ATOM      7  C   UNL d   1      36.585  65.121  91.485  0.00  0.00    -0.004 A 
ATOM      8  C   UNL d   1      37.009  66.776  89.297  0.00  0.00    -0.003 A 
ATOM      9  C   UNL d   1      36.202  64.692  90.218  0.00  0.00    -0.000 A 
ATOM     10  C   UNL d   1      36.426  65.517  89.121  0.00  0.00    -0.000 A 
ENDROOT
BRANCH   1  11
ATOM     11  C   UNL d   1      36.343  67.024  94.000  0.00  0.00    -0.018 A 
ATOM     12  C   UNL d   1      36.371  66.564  95.325  0.00  0.00     0.008 A 
ATOM     13  C   UNL d   1      35.286  66.777  96.183  0.00  0.00     0.068 A 
ATOM     14 CL   UNL d   1      35.407  66.168  97.796  0.00  0.00    -0.082 Cl
ATOM     15  C   UNL d   1      34.158  67.466  95.724  0.00  0.00     0.068 A 
ATOM     16 CL   UNL d   1      32.791  67.782  96.730  0.00  0.00    -0.082 Cl
ATOM     17  C   UNL d   1      34.115  67.923  94.404  0.00  0.00     0.012 A 
ATOM     18  C   UNL d   1      35.199  67.703  93.551  0.00  0.00    -0.003 A 
ENDBRANCH   1  11
BRANCH   3  19
ATOM     19  N   UNL d   1      37.177  69.678  90.026  0.00  0.00    -0.041 N 
ATOM     20  C   UNL d   1      36.009  70.145  90.762  0.00  0.00     0.242 C 
ATOM     21  H   UNL d   1      36.858  69.279  89.142  0.00  0.00     0.279 HD
ATOM     22  H   UNL d   1      37.785  70.486  89.900  0.00  0.00     0.279 HD
ENDBRANCH   3  19
TORSDOF 2

ENDMDL
MODEL 3
REMARK VINA RESULT:    -7.370     57.361     59.034
REMARK INTER + INTRA:          -8.639
REMARK INTER:                  -7.949
REMARK INTRA:                  -0.691
REMARK UNBOUND:                -0.407
REMARK  2 active torsions:
REMARK  status: ('A' for Active; 'I' for Inactive)
REMARK    1  A    between atoms: C_6  and  N_3 
REMARK    2  A    between atoms: C_4  and  C_10 
ROOT
ATOM      1  C   UNL d   1      41.632  54.602 124.764  0.00  0.00     0.044 C 
ATOM      2  C   UNL d   1      42.849  54.133 123.959  0.00  0.00     0.011 C 
ATOM      3  C   UNL d   1      41.722  54.657 121.725  0.00  0.00     0.203 C 
ATOM      4  C   UNL d   1      42.960  54.853 122.625  0.00  0.00     0.035 C 
ATOM      5  C   UNL d   1      40.368  54.657 123.921  0.00  0.00    -0.021 A 
ATOM      6  C   UNL d   1      40.404  54.691 122.509  0.00  0.00     0.002 A 
ATOM      7  C   UNL d   1      39.132  54.700 124.598  0.00  0.00    -0.004 A 
ATOM      8  C   UNL d   1      39.171  54.693 121.823  0.00  0.00    -0.003 A 
ATOM      9  C   UNL d   1      37.932  54.760 123.897  0.00  0.00    -0.000 A 
ATOM     10  C   UNL d   1      37.952  54.744 122.507  0.00  0.00    -0.000 A 
ENDROOT
BRANCH   1  11
ATOM     11  C   UNL d   1      41.910  55.900 125.520  0.00  0.00    -0.018 A 
ATOM     12  C   UNL d   1      42.309  55.846 126.865  0.00  0.00     0.008 A 
ATOM     13  C   UNL d   1      42.581  57.016 127.581  0.00  0.00     0.068 A 
ATOM     14 CL   UNL d   1      43.058  56.851 129.234  0.00  0.00    -0.082 Cl
ATOM     15  C   UNL d   1      42.466  58.261 126.954  0.00  0.00     0.068 A 
ATOM     16 CL   UNL d   1      42.804  59.745 127.769  0.00  0.00    -0.082 Cl
ATOM     17  C   UNL d   1      42.063  58.329 125.618  0.00  0.00     0.012 A 
ATOM     18  C   UNL d   1      41.788  57.158 124.908  0.00  0.00    -0.003 A 
ENDBRANCH   1  11
BRANCH   3  19
ATOM     19  N   UNL d   1      41.752  55.697 120.676  0.00  0.00    -0.041 N 
ATOM     20  C   UNL d   1      42.869  56.628 120.784  0.00  0.00     0.242 C 
ATOM     21  H   UNL d   1      40.885  56.232 120.734  0.00  0.00     0.279 HD
ATOM     22  H   UNL d   1      41.861  55.213 119.786  0.00  0.00     0.279 HD
ENDBRANCH   3  19
TORSDOF 2

ENDMDL
MODEL 4
REMARK VINA RESULT:    -7.003     29.929     31.547
REMARK INTER + INTRA:          -8.229
REMARK INTER:                  -7.551
REMARK INTRA:                  -0.677
REMARK UNBOUND:                -0.407
REMARK  2 active torsions:
REMARK  status: ('A' for Active; 'I' for Inactive)
REMARK    1  A    between atoms: C_6  and  N_3 
REMARK    2  A    between atoms: C_4  and  C_10 
ROOT
ATOM      1  C   UNL d   1      34.861  68.783  93.313  0.00  0.00     0.044 C 
ATOM      2  C   UNL d   1      34.144  67.988  92.216  0.00  0.00     0.011 C 
ATOM      3  C   UNL d   1      36.341  67.362  91.068  0.00  0.00     0.203 C 
ATOM      4  C   UNL d   1      35.010  66.864  91.670  0.00  0.00     0.035 C 
ATOM      5  C   UNL d   1      36.282  69.157  92.921  0.00  0.00    -0.021 A 
ATOM      6  C   UNL d   1      36.977  68.494  91.885  0.00  0.00     0.002 A 
ATOM      7  C   UNL d   1      36.912  70.186  93.650  0.00  0.00    -0.004 A 
ATOM      8  C   UNL d   1      38.274  68.952  91.570  0.00  0.00    -0.003 A 
ATOM      9  C   UNL d   1      38.213  70.579  93.356  0.00  0.00    -0.000 A 
ATOM     10  C   UNL d   1      38.891  69.969  92.306  0.00  0.00    -0.000 A 
ENDROOT
BRANCH   1  11
ATOM     11  C   UNL d   1      34.772  68.092  94.672  0.00  0.00    -0.018 A 
ATOM     12  C   UNL d   1      33.627  68.268  95.464  0.00  0.00     0.008 A 
ATOM     13  C   UNL d   1      33.511  67.641  96.709  0.00  0.00     0.068 A 
ATOM     14 CL   UNL d   1      32.067  67.922  97.617  0.00  0.00    -0.082 Cl
ATOM     15  C   UNL d   1      34.541  66.817  97.175  0.00  0.00     0.068 A 
ATOM     16 CL   UNL d   1      34.459  65.996  98.691  0.00  0.00    -0.082 Cl
ATOM     17  C   UNL d   1      35.690  66.639  96.399  0.00  0.00     0.012 A 
ATOM     18  C   UNL d   1      35.802  67.272  95.159  0.00  0.00    -0.003 A 
ENDBRANCH   1  11
BRANCH   3  19
ATOM     19  N   UNL d   1      37.251  66.203  90.956  0.00  0.00    -0.041 N 
ATOM     20  C   UNL d   1      36.603  64.910  91.137  0.00  0.00     0.242 C 
ATOM     21  H   UNL d   1      37.977  66.298  91.665  0.00  0.00     0.279 HD
ATOM     22  H   UNL d   1      37.621  66.213  90.006  0.00  0.00     0.279 HD
ENDBRANCH   3  19
TORSDOF 2

ENDMDL
MODEL 5
REMARK VINA RESULT:    -6.997     46.841     48.590
REMARK INTER + INTRA:          -8.223
REMARK INTER:                  -7.591
REMARK INTRA:                  -0.632
REMARK UNBOUND:                -0.407
REMARK  2 active torsions:
REMARK  status: ('A' for Active; 'I' for Inactive)
REMARK    1  A    between atoms: C_6  and  N_3 
REMARK    2  A    between atoms: C_4  and  C_10 
ROOT
ATOM      1  C   UNL d   1      23.892  67.140 108.491  0.00  0.00     0.044 C 
ATOM      2  C   UNL d   1      25.189  67.942 108.334  0.00  0.00     0.011 C 
ATOM      3  C   UNL d   1      26.481  66.383 109.895  0.00  0.00     0.203 C 
ATOM      4  C   UNL d   1      26.421  67.071 108.515  0.00  0.00     0.035 C 
ATOM      5  C   UNL d   1      23.911  66.246 109.721  0.00  0.00    -0.021 A 
ATOM      6  C   UNL d   1      25.111  65.884 110.372  0.00  0.00     0.002 A 
ATOM      7  C   UNL d   1      22.675  65.754 110.190  0.00  0.00    -0.004 A 
ATOM      8  C   UNL d   1      25.011  65.089 111.532  0.00  0.00    -0.003 A 
ATOM      9  C   UNL d   1      22.611  64.924 111.304  0.00  0.00    -0.000 A 
ATOM     10  C   UNL d   1      23.781  64.601 111.984  0.00  0.00    -0.000 A 
ENDROOT
BRANCH   1  11
ATOM     11  C   UNL d   1      23.519  66.397 107.210  0.00  0.00    -0.018 A 
ATOM     12  C   UNL d   1      22.957  67.106 106.137  0.00  0.00     0.008 A 
ATOM     13  C   UNL d   1      22.614  66.456 104.947  0.00  0.00     0.068 A 
ATOM     14 CL   UNL d   1      21.921  67.410 103.683  0.00  0.00    -0.082 Cl
ATOM     15  C   UNL d   1      22.840  65.082 104.811  0.00  0.00     0.068 A 
ATOM     16 CL   UNL d   1      22.461  64.217 103.366  0.00  0.00    -0.082 Cl
ATOM     17  C   UNL d   1      23.393  64.363 105.874  0.00  0.00     0.012 A 
ATOM     18  C   UNL d   1      23.729  65.016 107.063  0.00  0.00    -0.003 A 
ENDBRANCH   1  11
BRANCH   3  19
ATOM     19  N   UNL d   1      27.457  65.277 109.811  0.00  0.00    -0.041 N 
ATOM     20  C   UNL d   1      28.741  65.650 109.230  0.00  0.00     0.242 C 
ATOM     21  H   UNL d   1      27.051  64.537 109.238  0.00  0.00     0.279 HD
ATOM     22  H   UNL d   1      27.645  64.980 110.768  0.00  0.00     0.279 HD
ENDBRANCH   3  19
TORSDOF 2

ENDMDL
MODEL 6
REMARK VINA RESULT:    -6.959     32.568     34.335
REMARK INTER + INTRA:          -8.179
REMARK INTER:                  -7.512
REMARK INTRA:                  -0.667
REMARK UNBOUND:                -0.407
REMARK  2 active torsions:
REMARK  status: ('A' for Active; 'I' for Inactive)
REMARK    1  A    between atoms: C_6  and  N_3 
REMARK    2  A    between atoms: C_4  and  C_10 
ROOT
ATOM      1  C   UNL d   1      58.176  31.832  49.706  0.00  0.00     0.044 C 
ATOM      2  C   UNL d   1      57.813  30.616  50.567  0.00  0.00     0.011 C 
ATOM      3  C   UNL d   1      59.812  30.971  52.120  0.00  0.00     0.203 C 
ATOM      4  C   UNL d   1      58.287  30.775  52.003  0.00  0.00     0.035 C 
ATOM      5  C   UNL d   1      59.621  32.263  49.894  0.00  0.00    -0.021 A 
ATOM      6  C   UNL d   1      60.384  31.874  51.018  0.00  0.00     0.002 A 
ATOM      7  C   UNL d   1      60.186  33.102  48.912  0.00  0.00    -0.004 A 
ATOM      8  C   UNL d   1      61.730  32.291  51.071  0.00  0.00    -0.003 A 
ATOM      9  C   UNL d   1      61.500  33.545  49.018  0.00  0.00    -0.000 A 
ATOM     10  C   UNL d   1      62.277  33.129  50.094  0.00  0.00    -0.000 A 
ENDROOT
BRANCH   1  11
ATOM     11  C   UNL d   1      57.177  32.975  49.879  0.00  0.00    -0.018 A 
ATOM     12  C   UNL d   1      56.030  33.020  49.070  0.00  0.00     0.008 A 
ATOM     13  C   UNL d   1      55.092  34.048  49.211  0.00  0.00     0.068 A 
ATOM     14 CL   UNL d   1      53.715  34.025  48.167  0.00  0.00    -0.082 Cl
ATOM     15  C   UNL d   1      55.286  35.044  50.175  0.00  0.00     0.068 A 
ATOM     16 CL   UNL d   1      54.162  36.331  50.418  0.00  0.00    -0.082 Cl
ATOM     17  C   UNL d   1      56.427  35.014  50.981  0.00  0.00     0.012 A 
ATOM     18  C   UNL d   1      57.363  33.988  50.833  0.00  0.00    -0.003 A 
ENDBRANCH   1  11
BRANCH   3  19
ATOM     19  N   UNL d   1      60.100  31.515  53.463  0.00  0.00    -0.041 N 
ATOM     20  C   UNL d   1      59.915  30.562  54.550  0.00  0.00     0.242 C 
ATOM     21  H   UNL d   1      59.480  32.309  53.625  0.00  0.00     0.279 HD
ATOM     22  H   UNL d   1      61.086  31.775  53.469  0.00  0.00     0.279 HD
ENDBRANCH   3  19
TORSDOF 2

ENDMDL
MODEL 7
REMARK VINA RESULT:    -6.865     36.418     37.860
REMARK INTER + INTRA:          -8.075
REMARK INTER:                  -7.425
REMARK INTRA:                  -0.650
REMARK UNBOUND:                -0.407
REMARK  2 active torsions:
REMARK  status: ('A' for Active; 'I' for Inactive)
REMARK    1  A    between atoms: C_6  and  N_3 
REMARK    2  A    between atoms: C_4  and  C_10 
ROOT
ATOM      1  C   UNL d   1      32.061  48.813  34.909  0.00  0.00     0.044 C 
ATOM      2  C   UNL d   1      33.373  48.837  35.702  0.00  0.00     0.011 C 
ATOM      3  C   UNL d   1      34.788  49.040  33.582  0.00  0.00     0.203 C 
ATOM      4  C   UNL d   1      34.461  49.613  34.977  0.00  0.00     0.035 C 
ATOM      5  C   UNL d   1      32.276  48.464  33.445  0.00  0.00    -0.021 A 
ATOM      6  C   UNL d   1      33.539  48.575  32.821  0.00  0.00     0.002 A 
ATOM      7  C   UNL d   1      31.155  48.041  32.702  0.00  0.00    -0.004 A 
ATOM      8  C   UNL d   1      33.638  48.179  31.471  0.00  0.00    -0.003 A 
ATOM      9  C   UNL d   1      31.270  47.711  31.356  0.00  0.00    -0.000 A 
ATOM     10  C   UNL d   1      32.517  47.769  30.743  0.00  0.00    -0.000 A 
ENDROOT
BRANCH   1  11
ATOM     11  C   UNL d   1      31.247  50.090  35.111  0.00  0.00    -0.018 A 
ATOM     12  C   UNL d   1      31.272  51.090  34.126  0.00  0.00     0.008 A 
ATOM     13  C   UNL d   1      30.529  52.266  34.277  0.00  0.00     0.068 A 
ATOM     14 CL   UNL d   1      30.628  53.444  33.016  0.00  0.00    -0.082 Cl
ATOM     15  C   UNL d   1      29.740  52.452  35.417  0.00  0.00     0.068 A 
ATOM     16 CL   UNL d   1      28.782  53.867  35.662  0.00  0.00    -0.082 Cl
ATOM     17  C   UNL d   1      29.711  51.467  36.408  0.00  0.00     0.012 A 
ATOM     18  C   UNL d   1      30.459  50.297  36.254  0.00  0.00    -0.003 A 
ENDBRANCH   1  11
BRANCH   3  19
ATOM     19  N   UNL d   1      35.525  50.074  32.826  0.00  0.00    -0.041 N 
ATOM     20  C   UNL d   1      34.908  51.394  32.855  0.00  0.00     0.242 C 
ATOM     21  H   UNL d   1      35.588  49.772  31.853  0.00  0.00     0.279 HD
ATOM     22  H   UNL d   1      36.437  50.168  33.272  0.00  0.00     0.279 HD
ENDBRANCH   3  19
TORSDOF 2

ENDMDL
MODEL 8
REMARK VINA RESULT:    -6.863     40.129     42.775
REMARK INTER + INTRA:          -8.073
REMARK INTER:                  -7.469
REMARK INTRA:                  -0.604
REMARK UNBOUND:                -0.407
REMARK  2 active torsions:
REMARK  status: ('A' for Active; 'I' for Inactive)
REMARK    1  A    between atoms: C_6  and  N_3 
REMARK    2  A    between atoms: C_4  and  C_10 
ROOT
ATOM      1  C   UNL d   1      42.599  35.291  99.437  0.00  0.00     0.044 C 
ATOM      2  C   UNL d   1      43.282  34.418  98.378  0.00  0.00     0.011 C 
ATOM      3  C   UNL d   1      44.523  36.410  97.365  0.00  0.00     0.203 C 
ATOM      4  C   UNL d   1      44.625  34.987  97.952  0.00  0.00     0.035 C 
ATOM      5  C   UNL d   1      42.620  36.766  99.071  0.00  0.00    -0.021 A 
ATOM      6  C   UNL d   1      43.517  37.294  98.116  0.00  0.00     0.002 A 
ATOM      7  C   UNL d   1      41.721  37.619  99.743  0.00  0.00    -0.004 A 
ATOM      8  C   UNL d   1      43.420  38.669  97.817  0.00  0.00    -0.003 A 
ATOM      9  C   UNL d   1      41.685  38.982  99.470  0.00  0.00    -0.000 A 
ATOM     10  C   UNL d   1      42.529  39.505  98.496  0.00  0.00    -0.000 A 
ENDROOT
BRANCH   1  11
ATOM     11  C   UNL d   1      43.131  35.009 100.841  0.00  0.00    -0.018 A 
ATOM     12  C   UNL d   1      42.808  33.798 101.473  0.00  0.00     0.008 A 
ATOM     13  C   UNL d   1      43.288  33.506 102.754  0.00  0.00     0.068 A 
ATOM     14 CL   UNL d   1      42.832  31.994 103.456  0.00  0.00    -0.082 Cl
ATOM     15  C   UNL d   1      44.110  34.423 103.418  0.00  0.00     0.068 A 
ATOM     16 CL   UNL d   1      44.754  34.123 104.991  0.00  0.00    -0.082 Cl
ATOM     17  C   UNL d   1      44.433  35.635 102.802  0.00  0.00     0.012 A 
ATOM     18  C   UNL d   1      43.947  35.924 101.525  0.00  0.00    -0.003 A 
ENDBRANCH   1  11
BRANCH   3  19
ATOM     19  N   UNL d   1      45.875  37.007  97.376  0.00  0.00    -0.041 N 
ATOM     20  C   UNL d   1      46.941  36.084  97.006  0.00  0.00     0.242 C 
ATOM     21  H   UNL d   1      46.063  37.352  98.317  0.00  0.00     0.279 HD
ATOM     22  H   UNL d   1      45.874  37.746  96.674  0.00  0.00     0.279 HD
ENDBRANCH   3  19
TORSDOF 2

ENDMDL
MODEL 9
REMARK VINA RESULT:    -6.767     33.162     35.021
REMARK INTER + INTRA:          -7.966
REMARK INTER:                  -7.311
REMARK INTRA:                  -0.655
REMARK UNBOUND:                -0.407
REMARK  2 active torsions:
REMARK  status: ('A' for Active; 'I' for Inactive)
REMARK    1  A    between atoms: C_6  and  N_3 
REMARK    2  A    between atoms: C_4  and  C_10 
ROOT
ATOM      1  C   UNL d   1      60.275  32.828  47.624  0.00  0.00     0.044 C 
ATOM      2  C   UNL d   1      59.495  31.675  46.982  0.00  0.00     0.011 C 
ATOM      3  C   UNL d   1      59.349  30.389  49.186  0.00  0.00     0.203 C 
ATOM      4  C   UNL d   1      58.586  30.977  47.981  0.00  0.00     0.035 C 
ATOM      5  C   UNL d   1      60.908  32.431  48.947  0.00  0.00    -0.021 A 
ATOM      6  C   UNL d   1      60.477  31.304  49.682  0.00  0.00     0.002 A 
ATOM      7  C   UNL d   1      61.943  33.248  49.448  0.00  0.00    -0.004 A 
ATOM      8  C   UNL d   1      61.165  30.997  50.874  0.00  0.00    -0.003 A 
ATOM      9  C   UNL d   1      62.567  32.954  50.656  0.00  0.00    -0.000 A 
ATOM     10  C   UNL d   1      62.185  31.820  51.364  0.00  0.00    -0.000 A 
ENDROOT
BRANCH   1  11
ATOM     11  C   UNL d   1      59.440  34.104  47.713  0.00  0.00    -0.018 A 
ATOM     12  C   UNL d   1      58.577  34.292  48.804  0.00  0.00     0.008 A 
ATOM     13  C   UNL d   1      57.807  35.454  48.921  0.00  0.00     0.068 A 
ATOM     14 CL   UNL d   1      56.768  35.594  50.294  0.00  0.00    -0.082 Cl
ATOM     15  C   UNL d   1      57.899  36.453  47.945  0.00  0.00     0.068 A 
ATOM     16 CL   UNL d   1      56.995  37.921  48.032  0.00  0.00    -0.082 Cl
ATOM     17  C   UNL d   1      58.749  36.275  46.850  0.00  0.00     0.012 A 
ATOM     18  C   UNL d   1      59.512  35.110  46.737  0.00  0.00    -0.003 A 
ENDBRANCH   1  11
BRANCH   3  19
ATOM     19  N   UNL d   1      58.368  30.116  50.258  0.00  0.00    -0.041 N 
ATOM     20  C   UNL d   1      57.477  31.232  50.555  0.00  0.00     0.242 C 
ATOM     21  H   UNL d   1      58.881  29.882  51.108  0.00  0.00     0.279 HD
ATOM     22  H   UNL d   1      57.779  29.353  49.927  0.00  0.00     0.279 HD
ENDBRANCH   3  19
TORSDOF 2

ENDMDL
