MODEL 1
REMARK VINA RESULT:    -8.329      0.000      0.000
REMARK INTER + INTRA:          -9.959
REMARK INTER:                  -9.303
REMARK INTRA:                  -0.656
REMARK UNBOUND:                -0.656
REMARK  2 active torsions:
REMARK  status: ('A' for Active; 'I' for Inactive)
REMARK    1  A    between atoms: C_6  and  N_3 
REMARK    2  A    between atoms: C_4  and  C_10 
ROOT
ATOM      1  C   UNL d   1      44.675  52.949  71.096  0.00  0.00     0.044 C 
ATOM      2  C   UNL d   1      44.254  54.031  70.095  0.00  0.00     0.011 C 
ATOM      3  C   UNL d   1      43.807  52.318  68.251  0.00  0.00     0.203 C 
ATOM      4  C   UNL d   1      43.260  53.503  69.073  0.00  0.00     0.035 C 
ATOM      5  C   UNL d   1      45.041  51.641  70.413  0.00  0.00    -0.021 A 
ATOM      6  C   UNL d   1      44.634  51.338  69.095  0.00  0.00     0.002 A 
ATOM      7  C   UNL d   1      45.791  50.705  71.154  0.00  0.00    -0.004 A 
ATOM      8  C   UNL d   1      45.068  50.117  68.540  0.00  0.00    -0.003 A 
ATOM      9  C   UNL d   1      46.159  49.482  70.601  0.00  0.00    -0.000 A 
ATOM     10  C   UNL d   1      45.806  49.193  69.287  0.00  0.00    -0.000 A 
ENDROOT
BRANCH   1  11
ATOM     11  C   UNL d   1      43.653  52.778  72.219  0.00  0.00    -0.018 A 
ATOM     12  C   UNL d   1      43.642  53.687  73.288  0.00  0.00     0.008 A 
ATOM     13  C   UNL d   1      42.713  53.564  74.327  0.00  0.00     0.068 A 
ATOM     14 CL   UNL d   1      42.780  54.725  75.605  0.00  0.00    -0.082 Cl
ATOM     15  C   UNL d   1      41.771  52.529  74.302  0.00  0.00     0.068 A 
ATOM     16 CL   UNL d   1      40.582  52.327  75.537  0.00  0.00    -0.082 Cl
ATOM     17  C   UNL d   1      41.776  51.614  73.246  0.00  0.00     0.012 A 
ATOM     18  C   UNL d   1      42.709  51.739  72.214  0.00  0.00    -0.003 A 
ENDBRANCH   1  11
BRANCH   3  19
ATOM     19  N   UNL d   1      42.661  51.640  67.609  0.00  0.00    -0.041 N 
ATOM     20  C   UNL d   1      41.592  52.537  67.187  0.00  0.00     0.242 C 
ATOM     21  H   UNL d   1      42.273  50.972  68.275  0.00  0.00     0.279 HD
ATOM     22  H   UNL d   1      43.019  51.196  66.764  0.00  0.00     0.279 HD
ENDBRANCH   3  19
TORSDOF 2

ENDMDL
MODEL 2
REMARK VINA RESULT:    -7.619     18.855     21.360
REMARK INTER + INTRA:          -9.166
REMARK INTER:                  -8.475
REMARK INTRA:                  -0.691
REMARK UNBOUND:                -0.656
REMARK  2 active torsions:
REMARK  status: ('A' for Active; 'I' for Inactive)
REMARK    1  A    between atoms: C_6  and  N_3 
REMARK    2  A    between atoms: C_4  and  C_10 
ROOT
ATOM      1  C   UNL d   1      49.487  53.357  50.985  0.00  0.00     0.044 C 
ATOM      2  C   UNL d   1      49.275  54.250  52.213  0.00  0.00     0.011 C 
ATOM      3  C   UNL d   1      47.488  52.697  53.179  0.00  0.00     0.203 C 
ATOM      4  C   UNL d   1      48.811  53.453  53.421  0.00  0.00     0.035 C 
ATOM      5  C   UNL d   1      48.327  52.402  50.757  0.00  0.00    -0.021 A 
ATOM      6  C   UNL d   1      47.400  52.084  51.775  0.00  0.00     0.002 A 
ATOM      7  C   UNL d   1      48.212  51.805  49.485  0.00  0.00    -0.004 A 
ATOM      8  C   UNL d   1      46.334  51.223  51.443  0.00  0.00    -0.003 A 
ATOM      9  C   UNL d   1      47.182  50.914  49.201  0.00  0.00    -0.000 A 
ATOM     10  C   UNL d   1      46.234  50.632  50.179  0.00  0.00    -0.000 A 
ENDROOT
BRANCH   1  11
ATOM     11  C   UNL d   1      50.847  52.661  51.011  0.00  0.00    -0.018 A 
ATOM     12  C   UNL d   1      51.997  53.375  50.642  0.00  0.00     0.008 A 
ATOM     13  C   UNL d   1      53.258  52.769  50.665  0.00  0.00     0.068 A 
ATOM     14 CL   UNL d   1      54.616  53.725  50.187  0.00  0.00    -0.082 Cl
ATOM     15  C   UNL d   1      53.384  51.436  51.070  0.00  0.00     0.068 A 
ATOM     16 CL   UNL d   1      54.908  50.629  51.142  0.00  0.00    -0.082 Cl
ATOM     17  C   UNL d   1      52.246  50.712  51.433  0.00  0.00     0.012 A 
ATOM     18  C   UNL d   1      50.989  51.321  51.403  0.00  0.00    -0.003 A 
ENDBRANCH   1  11
BRANCH   3  19
ATOM     19  N   UNL d   1      47.355  51.663  54.226  0.00  0.00    -0.041 N 
ATOM     20  C   UNL d   1      48.432  50.681  54.241  0.00  0.00     0.242 C 
ATOM     21  H   UNL d   1      46.475  51.170  54.077  0.00  0.00     0.279 HD
ATOM     22  H   UNL d   1      47.391  52.149  55.122  0.00  0.00     0.279 HD
ENDBRANCH   3  19
TORSDOF 2

ENDMDL
MODEL 3
REMARK VINA RESULT:    -7.366     24.545     27.437
REMARK INTER + INTRA:          -8.883
REMARK INTER:                  -8.121
REMARK INTRA:                  -0.762
REMARK UNBOUND:                -0.656
REMARK  2 active torsions:
REMARK  status: ('A' for Active; 'I' for Inactive)
REMARK    1  A    between atoms: C_6  and  N_3 
REMARK    2  A    between atoms: C_4  and  C_10 
ROOT
ATOM      1  C   UNL d   1      37.490  66.720  93.062  0.00  0.00     0.044 C 
ATOM      2  C   UNL d   1      38.458  67.909  93.066  0.00  0.00     0.011 C 
ATOM      3  C   UNL d   1      37.884  68.535  90.654  0.00  0.00     0.203 C 
ATOM      4  C   UNL d   1      38.010  69.009  92.117  0.00  0.00     0.035 C 
ATOM      5  C   UNL d   1      37.114  66.284  91.655  0.00  0.00    -0.021 A 
ATOM      6  C   UNL d   1      37.286  67.126  90.534  0.00  0.00     0.002 A 
ATOM      7  C   UNL d   1      36.552  65.001  91.496  0.00  0.00    -0.004 A 
ATOM      8  C   UNL d   1      36.949  66.606  89.267  0.00  0.00    -0.003 A 
ATOM      9  C   UNL d   1      36.175  64.534  90.242  0.00  0.00    -0.000 A 
ATOM     10  C   UNL d   1      36.386  65.334  89.124  0.00  0.00    -0.000 A 
ENDROOT
BRANCH   1  11
ATOM     11  C   UNL d   1      36.280  66.964  93.962  0.00  0.00    -0.018 A 
ATOM     12  C   UNL d   1      36.303  66.511  95.291  0.00  0.00     0.008 A 
ATOM     13  C   UNL d   1      35.215  66.727  96.143  0.00  0.00     0.068 A 
ATOM     14 CL   UNL d   1      35.331  66.128  97.760  0.00  0.00    -0.082 Cl
ATOM     15  C   UNL d   1      34.088  67.412  95.676  0.00  0.00     0.068 A 
ATOM     16 CL   UNL d   1      32.717  67.733  96.675  0.00  0.00    -0.082 Cl
ATOM     17  C   UNL d   1      34.049  67.862  94.353  0.00  0.00     0.012 A 
ATOM     18  C   UNL d   1      35.137  67.638  93.506  0.00  0.00    -0.003 A 
ENDBRANCH   1  11
BRANCH   3  19
ATOM     19  N   UNL d   1      37.071  69.528  89.922  0.00  0.00    -0.041 N 
ATOM     20  C   UNL d   1      35.847  69.925  90.607  0.00  0.00     0.242 C 
ATOM     21  H   UNL d   1      36.816  69.127  89.019  0.00  0.00     0.279 HD
ATOM     22  H   UNL d   1      37.642  70.367  89.836  0.00  0.00     0.279 HD
ENDBRANCH   3  19
TORSDOF 2

ENDMDL
MODEL 4
REMARK VINA RESULT:    -7.341     49.335     51.174
REMARK INTER + INTRA:          -8.855
REMARK INTER:                  -8.195
REMARK INTRA:                  -0.660
REMARK UNBOUND:                -0.656
REMARK  2 active torsions:
REMARK  status: ('A' for Active; 'I' for Inactive)
REMARK    1  A    between atoms: C_6  and  N_3 
REMARK    2  A    between atoms: C_4  and  C_10 
ROOT
ATOM      1  C   UNL d   1      62.799  34.109 115.166  0.00  0.00     0.044 C 
ATOM      2  C   UNL d   1      62.619  32.949 116.151  0.00  0.00     0.011 C 
ATOM      3  C   UNL d   1      62.608  34.512 118.174  0.00  0.00     0.203 C 
ATOM      4  C   UNL d   1      61.887  33.381 117.411  0.00  0.00     0.035 C 
ATOM      5  C   UNL d   1      63.313  35.369 115.845  0.00  0.00    -0.021 A 
ATOM      6  C   UNL d   1      63.219  35.565 117.240  0.00  0.00     0.002 A 
ATOM      7  C   UNL d   1      63.873  36.370 115.026  0.00  0.00    -0.004 A 
ATOM      8  C   UNL d   1      63.770  36.749 117.773  0.00  0.00    -0.003 A 
ATOM      9  C   UNL d   1      64.358  37.554 115.571  0.00  0.00    -0.000 A 
ATOM     10  C   UNL d   1      64.317  37.739 116.949  0.00  0.00    -0.000 A 
ENDROOT
BRANCH   1  11
ATOM     11  C   UNL d   1      61.547  34.345 114.323  0.00  0.00    -0.018 A 
ATOM     12  C   UNL d   1      61.447  33.757 113.053  0.00  0.00     0.008 A 
ATOM     13  C   UNL d   1      60.309  33.946 112.261  0.00  0.00     0.068 A 
ATOM     14 CL   UNL d   1      60.279  33.189 110.708  0.00  0.00    -0.082 Cl
ATOM     15  C   UNL d   1      59.248  34.722 112.738  0.00  0.00     0.068 A 
ATOM     16 CL   UNL d   1      57.805  34.983 111.826  0.00  0.00    -0.082 Cl
ATOM     17  C   UNL d   1      59.338  35.319 113.999  0.00  0.00     0.012 A 
ATOM     18  C   UNL d   1      60.478  35.131 114.783  0.00  0.00    -0.003 A 
ENDBRANCH   1  11
BRANCH   3  19
ATOM     19  N   UNL d   1      61.640  35.119 119.111  0.00  0.00    -0.041 N 
ATOM     20  C   UNL d   1      61.795  34.693 120.496  0.00  0.00     0.242 C 
ATOM     21  H   UNL d   1      60.700  34.870 118.803  0.00  0.00     0.279 HD
ATOM     22  H   UNL d   1      61.810  36.125 119.095  0.00  0.00     0.279 HD
ENDBRANCH   3  19
TORSDOF 2

ENDMDL
MODEL 5
REMARK VINA RESULT:    -7.251     17.105     19.755
REMARK INTER + INTRA:          -8.755
REMARK INTER:                  -8.078
REMARK INTRA:                  -0.677
REMARK UNBOUND:                -0.656
REMARK  2 active torsions:
REMARK  status: ('A' for Active; 'I' for Inactive)
REMARK    1  A    between atoms: C_6  and  N_3 
REMARK    2  A    between atoms: C_4  and  C_10 
ROOT
ATOM      1  C   UNL d   1      48.713  52.360  52.909  0.00  0.00     0.044 C 
ATOM      2  C   UNL d   1      48.950  51.315  54.006  0.00  0.00     0.011 C 
ATOM      3  C   UNL d   1      47.518  52.592  55.696  0.00  0.00     0.203 C 
ATOM      4  C   UNL d   1      47.791  51.249  54.988  0.00  0.00     0.035 C 
ATOM      5  C   UNL d   1      48.228  53.687  53.470  0.00  0.00    -0.021 A 
ATOM      6  C   UNL d   1      47.664  53.799  54.760  0.00  0.00     0.002 A 
ATOM      7  C   UNL d   1      48.332  54.823  52.642  0.00  0.00    -0.004 A 
ATOM      8  C   UNL d   1      47.290  55.086  55.200  0.00  0.00    -0.003 A 
ATOM      9  C   UNL d   1      47.902  56.071  53.080  0.00  0.00    -0.000 A 
ATOM     10  C   UNL d   1      47.391  56.204  54.367  0.00  0.00    -0.000 A 
ENDROOT
BRANCH   1  11
ATOM     11  C   UNL d   1      47.830  51.820  51.786  0.00  0.00    -0.018 A 
ATOM     12  C   UNL d   1      48.413  51.454  50.562  0.00  0.00     0.008 A 
ATOM     13  C   UNL d   1      47.633  50.947  49.518  0.00  0.00     0.068 A 
ATOM     14 CL   UNL d   1      48.436  50.530  48.046  0.00  0.00    -0.082 Cl
ATOM     15  C   UNL d   1      46.253  50.789  49.689  0.00  0.00     0.068 A 
ATOM     16 CL   UNL d   1      45.231  50.152  48.453  0.00  0.00    -0.082 Cl
ATOM     17  C   UNL d   1      45.659  51.156  50.900  0.00  0.00     0.012 A 
ATOM     18  C   UNL d   1      46.443  51.667  51.938  0.00  0.00    -0.003 A 
ENDBRANCH   1  11
BRANCH   3  19
ATOM     19  N   UNL d   1      46.165  52.529  56.286  0.00  0.00    -0.041 N 
ATOM     20  C   UNL d   1      45.344  51.431  55.791  0.00  0.00     0.242 C 
ATOM     21  H   UNL d   1      45.685  53.405  56.077  0.00  0.00     0.279 HD
ATOM     22  H   UNL d   1      46.289  52.373  57.286  0.00  0.00     0.279 HD
ENDBRANCH   3  19
TORSDOF 2

ENDMDL
MODEL 6
REMARK VINA RESULT:    -7.087     58.301     59.758
REMARK INTER + INTRA:          -8.572
REMARK INTER:                  -8.090
REMARK INTRA:                  -0.482
REMARK UNBOUND:                -0.656
REMARK  2 active torsions:
REMARK  status: ('A' for Active; 'I' for Inactive)
REMARK    1  A    between atoms: C_6  and  N_3 
REMARK    2  A    between atoms: C_4  and  C_10 
ROOT
ATOM      1  C   UNL d   1      53.685  58.998 128.228  0.00  0.00     0.044 C 
ATOM      2  C   UNL d   1      52.248  59.033 128.759  0.00  0.00     0.011 C 
ATOM      3  C   UNL d   1      52.533  56.822 130.012  0.00  0.00     0.203 C 
ATOM      4  C   UNL d   1      52.116  58.306 130.088  0.00  0.00     0.035 C 
ATOM      5  C   UNL d   1      54.295  57.607 128.298  0.00  0.00    -0.021 A 
ATOM      6  C   UNL d   1      53.770  56.595 129.132  0.00  0.00     0.002 A 
ATOM      7  C   UNL d   1      55.439  57.355 127.514  0.00  0.00    -0.004 A 
ATOM      8  C   UNL d   1      54.382  55.326 129.086  0.00  0.00    -0.003 A 
ATOM      9  C   UNL d   1      56.058  56.109 127.531  0.00  0.00    -0.000 A 
ATOM     10  C   UNL d   1      55.521  55.090 128.309  0.00  0.00    -0.000 A 
ENDROOT
BRANCH   1  11
ATOM     11  C   UNL d   1      54.559  60.074 128.870  0.00  0.00    -0.018 A 
ATOM     12  C   UNL d   1      54.164  61.419 128.801  0.00  0.00     0.008 A 
ATOM     13  C   UNL d   1      54.937  62.426 129.388  0.00  0.00     0.068 A 
ATOM     14 CL   UNL d   1      54.375  64.054 129.246  0.00  0.00    -0.082 Cl
ATOM     15  C   UNL d   1      56.117  62.097 130.064  0.00  0.00     0.068 A 
ATOM     16 CL   UNL d   1      57.111  63.283 130.828  0.00  0.00    -0.082 Cl
ATOM     17  C   UNL d   1      56.525  60.762 130.133  0.00  0.00     0.012 A 
ATOM     18  C   UNL d   1      55.752  59.761 129.541  0.00  0.00    -0.003 A 
ENDBRANCH   1  11
BRANCH   3  19
ATOM     19  N   UNL d   1      52.759  56.342 131.391  0.00  0.00    -0.041 N 
ATOM     20  C   UNL d   1      52.414  57.306 132.428  0.00  0.00     0.242 C 
ATOM     21  H   UNL d   1      53.748  56.108 131.489  0.00  0.00     0.279 HD
ATOM     22  H   UNL d   1      52.146  55.538 131.525  0.00  0.00     0.279 HD
ENDBRANCH   3  19
TORSDOF 2

ENDMDL
MODEL 7
REMARK VINA RESULT:    -6.972     42.783     44.227
REMARK INTER + INTRA:          -8.444
REMARK INTER:                  -7.742
REMARK INTRA:                  -0.701
REMARK UNBOUND:                -0.656
REMARK  2 active torsions:
REMARK  status: ('A' for Active; 'I' for Inactive)
REMARK    1  A    between atoms: C_6  and  N_3 
REMARK    2  A    between atoms: C_4  and  C_10 
ROOT
ATOM      1  C   UNL d   1      60.129  32.088 105.840  0.00  0.00     0.044 C 
ATOM      2  C   UNL d   1      58.741  32.681 105.570  0.00  0.00     0.011 C 
ATOM      3  C   UNL d   1      58.178  30.879 103.846  0.00  0.00     0.203 C 
ATOM      4  C   UNL d   1      57.746  31.620 105.129  0.00  0.00     0.035 C 
ATOM      5  C   UNL d   1      60.586  31.157 104.729  0.00  0.00    -0.021 A 
ATOM      6  C   UNL d   1      59.683  30.585 103.805  0.00  0.00     0.002 A 
ATOM      7  C   UNL d   1      61.960  30.849 104.658  0.00  0.00    -0.004 A 
ATOM      8  C   UNL d   1      60.219  29.772 102.784  0.00  0.00    -0.003 A 
ATOM      9  C   UNL d   1      62.454  29.998 103.674  0.00  0.00    -0.000 A 
ATOM     10  C   UNL d   1      61.583  29.469 102.729  0.00  0.00    -0.000 A 
ENDROOT
BRANCH   1  11
ATOM     11  C   UNL d   1      60.224  31.462 107.230  0.00  0.00    -0.018 A 
ATOM     12  C   UNL d   1      60.570  32.265 108.328  0.00  0.00     0.008 A 
ATOM     13  C   UNL d   1      60.656  31.723 109.615  0.00  0.00     0.068 A 
ATOM     14 CL   UNL d   1      61.096  32.787 110.905  0.00  0.00    -0.082 Cl
ATOM     15  C   UNL d   1      60.385  30.366 109.822  0.00  0.00     0.068 A 
ATOM     16 CL   UNL d   1      60.452  29.633 111.383  0.00  0.00    -0.082 Cl
ATOM     17  C   UNL d   1      60.046  29.555 108.735  0.00  0.00     0.012 A 
ATOM     18  C   UNL d   1      59.967  30.100 107.452  0.00  0.00    -0.003 A 
ENDBRANCH   1  11
BRANCH   3  19
ATOM     19  N   UNL d   1      57.384  29.637 103.747  0.00  0.00    -0.041 N 
ATOM     20  C   UNL d   1      56.500  29.397 104.881  0.00  0.00     0.242 C 
ATOM     21  H   UNL d   1      58.031  28.851 103.676  0.00  0.00     0.279 HD
ATOM     22  H   UNL d   1      56.787  29.735 102.927  0.00  0.00     0.279 HD
ENDBRANCH   3  19
TORSDOF 2

ENDMDL
MODEL 8
REMARK VINA RESULT:    -6.862     24.063     26.555
REMARK INTER + INTRA:          -8.321
REMARK INTER:                  -7.878
REMARK INTRA:                  -0.443
REMARK UNBOUND:                -0.656
REMARK  2 active torsions:
REMARK  status: ('A' for Active; 'I' for Inactive)
REMARK    1  A    between atoms: C_6  and  N_3 
REMARK    2  A    between atoms: C_4  and  C_10 
ROOT
ATOM      1  C   UNL d   1      50.279  42.205  47.850  0.00  0.00     0.044 C 
ATOM      2  C   UNL d   1      51.513  42.444  46.973  0.00  0.00     0.011 C 
ATOM      3  C   UNL d   1      50.314  41.646  44.861  0.00  0.00     0.203 C 
ATOM      4  C   UNL d   1      51.136  42.764  45.536  0.00  0.00     0.035 C 
ATOM      5  C   UNL d   1      49.275  41.271  47.193  0.00  0.00    -0.021 A 
ATOM      6  C   UNL d   1      49.281  41.014  45.804  0.00  0.00     0.002 A 
ATOM      7  C   UNL d   1      48.300  40.675  48.018  0.00  0.00    -0.004 A 
ATOM      8  C   UNL d   1      48.335  40.094  45.305  0.00  0.00    -0.003 A 
ATOM      9  C   UNL d   1      47.343  39.815  47.490  0.00  0.00    -0.000 A 
ATOM     10  C   UNL d   1      47.369  39.515  46.133  0.00  0.00    -0.000 A 
ENDROOT
BRANCH   1  11
ATOM     11  C   UNL d   1      49.658  43.514  48.334  0.00  0.00    -0.018 A 
ATOM     12  C   UNL d   1      48.353  43.849  47.939  0.00  0.00     0.008 A 
ATOM     13  C   UNL d   1      47.753  45.035  48.374  0.00  0.00     0.068 A 
ATOM     14 CL   UNL d   1      46.146  45.367  47.831  0.00  0.00    -0.082 Cl
ATOM     15  C   UNL d   1      48.451  45.902  49.221  0.00  0.00     0.068 A 
ATOM     16 CL   UNL d   1      47.768  47.373  49.813  0.00  0.00    -0.082 Cl
ATOM     17  C   UNL d   1      49.754  45.584  49.616  0.00  0.00     0.012 A 
ATOM     18  C   UNL d   1      50.350  44.400  49.175  0.00  0.00    -0.003 A 
ENDBRANCH   1  11
BRANCH   3  19
ATOM     19  N   UNL d   1      49.668  42.217  43.660  0.00  0.00    -0.041 N 
ATOM     20  C   UNL d   1      50.148  41.664  42.400  0.00  0.00     0.242 C 
ATOM     21  H   UNL d   1      49.839  43.222  43.654  0.00  0.00     0.279 HD
ATOM     22  H   UNL d   1      48.677  41.983  43.723  0.00  0.00     0.279 HD
ENDBRANCH   3  19
TORSDOF 2

ENDMDL
MODEL 9
REMARK VINA RESULT:    -6.763     10.740     12.784
REMARK INTER + INTRA:          -8.210
REMARK INTER:                  -7.632
REMARK INTRA:                  -0.578
REMARK UNBOUND:                -0.656
REMARK  2 active torsions:
REMARK  status: ('A' for Active; 'I' for Inactive)
REMARK    1  A    between atoms: C_6  and  N_3 
REMARK    2  A    between atoms: C_4  and  C_10 
ROOT
ATOM      1  C   UNL d   1      42.956  63.019  67.295  0.00  0.00     0.044 C 
ATOM      2  C   UNL d   1      43.304  61.669  67.932  0.00  0.00     0.011 C 
ATOM      3  C   UNL d   1      45.818  62.090  67.738  0.00  0.00     0.203 C 
ATOM      4  C   UNL d   1      44.639  61.709  68.658  0.00  0.00     0.035 C 
ATOM      5  C   UNL d   1      44.124  63.612  66.523  0.00  0.00    -0.021 A 
ATOM      6  C   UNL d   1      45.457  63.191  66.731  0.00  0.00     0.002 A 
ATOM      7  C   UNL d   1      43.843  64.634  65.594  0.00  0.00    -0.004 A 
ATOM      8  C   UNL d   1      46.460  63.772  65.928  0.00  0.00    -0.003 A 
ATOM      9  C   UNL d   1      44.859  65.231  64.856  0.00  0.00    -0.000 A 
ATOM     10  C   UNL d   1      46.168  64.791  65.015  0.00  0.00    -0.000 A 
ENDROOT
BRANCH   1  11
ATOM     11  C   UNL d   1      42.346  63.989  68.305  0.00  0.00    -0.018 A 
ATOM     12  C   UNL d   1      41.078  63.719  68.844  0.00  0.00     0.008 A 
ATOM     13  C   UNL d   1      40.496  64.582  69.779  0.00  0.00     0.068 A 
ATOM     14 CL   UNL d   1      38.930  64.172  70.382  0.00  0.00    -0.082 Cl
ATOM     15  C   UNL d   1      41.184  65.727  70.195  0.00  0.00     0.068 A 
ATOM     16 CL   UNL d   1      40.537  66.827  71.358  0.00  0.00    -0.082 Cl
ATOM     17  C   UNL d   1      42.444  66.011  69.660  0.00  0.00     0.012 A 
ATOM     18  C   UNL d   1      43.018  65.148  68.724  0.00  0.00    -0.003 A 
ENDBRANCH   1  11
BRANCH   3  19
ATOM     19  N   UNL d   1      46.951  62.496  68.595  0.00  0.00    -0.041 N 
ATOM     20  C   UNL d   1      48.069  61.560  68.595  0.00  0.00     0.242 C 
ATOM     21  H   UNL d   1      46.611  62.587  69.552  0.00  0.00     0.279 HD
ATOM     22  H   UNL d   1      47.305  63.373  68.215  0.00  0.00     0.279 HD
ENDBRANCH   3  19
TORSDOF 2

ENDMDL
