MODEL 1
REMARK VINA RESULT:    -8.151      0.000      0.000
REMARK INTER + INTRA:          -9.624
REMARK INTER:                  -9.342
REMARK INTRA:                  -0.282
REMARK UNBOUND:                -0.282
REMARK  3 active torsions:
REMARK  status: ('A' for Active; 'I' for Inactive)
REMARK    1  A    between atoms: N_1  and  C_10 
REMARK    2  A    between atoms: C_4  and  C_10 
REMARK    3  A    between atoms: C_17  and  C_19 
ROOT
ATOM      1  C   UNL d   1      46.558  52.003  52.971  0.00  0.00     0.006 C 
ATOM      2  C   UNL d   1      47.176  52.211  54.420  0.00  0.00     0.019 C 
ATOM      3  C   UNL d   1      47.609  51.672  51.814  0.00  0.00     0.029 C 
ATOM      4  C   UNL d   1      48.553  51.507  54.524  0.00  0.00     0.004 C 
ATOM      5  C   UNL d   1      48.973  52.327  52.129  0.00  0.00     0.002 C 
ATOM      6  C   UNL d   1      45.369  51.025  52.948  0.00  0.00     0.005 C 
ATOM      7  C   UNL d   1      49.570  51.918  53.467  0.00  0.00     0.000 C 
ATOM      8  C   UNL d   1      46.266  51.735  55.577  0.00  0.00    -0.027 A 
ATOM      9  C   UNL d   1      44.326  51.333  54.003  0.00  0.00     0.026 C 
ATOM     10  C   UNL d   1      47.360  53.740  54.652  0.00  0.00     0.004 C 
ATOM     11  C   UNL d   1      47.093  52.326  50.503  0.00  0.00     0.002 C 
ATOM     12  C   UNL d   1      44.937  51.332  55.372  0.00  0.00    -0.026 A 
ATOM     13  C   UNL d   1      46.738  51.761  56.906  0.00  0.00    -0.005 A 
ATOM     14  C   UNL d   1      44.122  50.981  56.465  0.00  0.00    -0.009 A 
ATOM     15  C   UNL d   1      44.604  51.011  57.779  0.00  0.00    -0.023 A 
ATOM     16  C   UNL d   1      45.927  51.397  57.983  0.00  0.00    -0.005 A 
ENDROOT
BRANCH   3  17
ATOM     17  C   UNL d   1      47.765  50.131  51.571  0.00  0.00     0.205 C 
BRANCH  17  18
ATOM     18  N   UNL d   1      47.399  49.643  50.243  0.00  0.00    -0.064 N 
ATOM     19  H   UNL d   1      48.231  49.606  49.653  0.00  0.00     0.275 HD
ATOM     20  H   UNL d   1      46.714  50.273  49.825  0.00  0.00     0.275 HD
ATOM     21  H   UNL d   1      46.998  48.708  50.322  0.00  0.00     0.275 HD
ENDBRANCH  17  18
ENDBRANCH   3  17
BRANCH  15  22
ATOM     22  C   UNL d   1      43.690  50.671  58.939  0.00  0.00     0.022 C 
ATOM     23  C   UNL d   1      42.673  49.591  58.567  0.00  0.00     0.005 C 
ATOM     24  C   UNL d   1      44.508  50.257  60.166  0.00  0.00     0.005 C 
ENDBRANCH  15  22
TORSDOF 3

ENDMDL
MODEL 2
REMARK VINA RESULT:    -7.774      3.467      6.589
REMARK INTER + INTRA:          -9.192
REMARK INTER:                  -8.931
REMARK INTRA:                  -0.261
REMARK UNBOUND:                -0.282
REMARK  3 active torsions:
REMARK  status: ('A' for Active; 'I' for Inactive)
REMARK    1  A    between atoms: N_1  and  C_10 
REMARK    2  A    between atoms: C_4  and  C_10 
REMARK    3  A    between atoms: C_17  and  C_19 
ROOT
ATOM      1  C   UNL d   1      47.518  53.868  52.755  0.00  0.00     0.006 C 
ATOM      2  C   UNL d   1      47.350  52.342  53.163  0.00  0.00     0.019 C 
ATOM      3  C   UNL d   1      47.979  54.849  53.928  0.00  0.00     0.029 C 
ATOM      4  C   UNL d   1      48.193  52.027  54.426  0.00  0.00     0.004 C 
ATOM      5  C   UNL d   1      47.466  54.331  55.290  0.00  0.00     0.002 C 
ATOM      6  C   UNL d   1      48.365  54.071  51.485  0.00  0.00     0.005 C 
ATOM      7  C   UNL d   1      47.912  52.917  55.629  0.00  0.00     0.000 C 
ATOM      8  C   UNL d   1      47.705  51.337  52.043  0.00  0.00    -0.027 A 
ATOM      9  C   UNL d   1      47.929  53.189  50.333  0.00  0.00     0.026 C 
ATOM     10  C   UNL d   1      45.845  52.087  53.474  0.00  0.00     0.004 C 
ATOM     11  C   UNL d   1      47.298  56.225  53.690  0.00  0.00     0.002 C 
ATOM     12  C   UNL d   1      47.970  51.743  50.725  0.00  0.00    -0.026 A 
ATOM     13  C   UNL d   1      47.706  49.952  52.307  0.00  0.00    -0.005 A 
ATOM     14  C   UNL d   1      48.213  50.786  49.720  0.00  0.00    -0.009 A 
ATOM     15  C   UNL d   1      48.210  49.414  49.998  0.00  0.00    -0.023 A 
ATOM     16  C   UNL d   1      47.963  49.011  51.308  0.00  0.00    -0.005 A 
ENDROOT
BRANCH   3  17
ATOM     17  C   UNL d   1      49.532  55.063  53.952  0.00  0.00     0.205 C 
BRANCH  17  18
ATOM     18  N   UNL d   1      50.005  56.418  53.675  0.00  0.00    -0.064 N 
ATOM     19  H   UNL d   1      49.207  57.049  53.600  0.00  0.00     0.275 HD
ATOM     20  H   UNL d   1      50.526  56.424  52.798  0.00  0.00     0.275 HD
ATOM     21  H   UNL d   1      50.613  56.728  54.434  0.00  0.00     0.275 HD
ENDBRANCH  17  18
ENDBRANCH   3  17
BRANCH  15  22
ATOM     22  C   UNL d   1      48.430  48.407  48.886  0.00  0.00     0.022 C 
ATOM     23  C   UNL d   1      49.917  48.145  48.640  0.00  0.00     0.005 C 
ATOM     24  C   UNL d   1      47.685  47.103  49.186  0.00  0.00     0.005 C 
ENDBRANCH  15  22
TORSDOF 3

ENDMDL
MODEL 3
REMARK VINA RESULT:    -7.528      1.465      2.312
REMARK INTER + INTRA:          -8.910
REMARK INTER:                  -8.628
REMARK INTRA:                  -0.282
REMARK UNBOUND:                -0.282
REMARK  3 active torsions:
REMARK  status: ('A' for Active; 'I' for Inactive)
REMARK    1  A    between atoms: N_1  and  C_10 
REMARK    2  A    between atoms: C_4  and  C_10 
REMARK    3  A    between atoms: C_17  and  C_19 
ROOT
ATOM      1  C   UNL d   1      47.929  51.728  51.261  0.00  0.00     0.006 C 
ATOM      2  C   UNL d   1      48.459  52.465  52.565  0.00  0.00     0.019 C 
ATOM      3  C   UNL d   1      49.054  51.256  50.229  0.00  0.00     0.029 C 
ATOM      4  C   UNL d   1      49.935  52.078  52.838  0.00  0.00     0.004 C 
ATOM      5  C   UNL d   1      50.272  52.204  50.298  0.00  0.00     0.002 C 
ATOM      6  C   UNL d   1      46.930  50.595  51.562  0.00  0.00     0.005 C 
ATOM      7  C   UNL d   1      50.893  52.325  51.681  0.00  0.00     0.000 C 
ATOM      8  C   UNL d   1      47.614  52.205  53.834  0.00  0.00    -0.027 A 
ATOM      9  C   UNL d   1      45.820  51.016  52.503  0.00  0.00     0.026 C 
ATOM     10  C   UNL d   1      48.366  54.001  52.323  0.00  0.00     0.004 C 
ATOM     11  C   UNL d   1      48.468  51.387  48.796  0.00  0.00     0.002 C 
ATOM     12  C   UNL d   1      46.383  51.532  53.793  0.00  0.00    -0.026 A 
ATOM     13  C   UNL d   1      48.036  52.709  55.081  0.00  0.00    -0.005 A 
ATOM     14  C   UNL d   1      45.611  51.387  54.962  0.00  0.00    -0.009 A 
ATOM     15  C   UNL d   1      46.043  51.893  56.194  0.00  0.00    -0.023 A 
ATOM     16  C   UNL d   1      47.272  52.548  56.238  0.00  0.00    -0.005 A 
ENDROOT
BRANCH   3  17
ATOM     17  C   UNL d   1      49.483  49.766  50.454  0.00  0.00     0.205 C 
BRANCH  17  18
ATOM     18  N   UNL d   1      50.031  49.066  49.295  0.00  0.00    -0.064 N 
ATOM     19  H   UNL d   1      49.666  49.486  48.439  0.00  0.00     0.275 HD
ATOM     20  H   UNL d   1      49.762  48.082  49.331  0.00  0.00     0.275 HD
ATOM     21  H   UNL d   1      51.049  49.140  49.301  0.00  0.00     0.275 HD
ENDBRANCH  17  18
ENDBRANCH   3  17
BRANCH  15  22
ATOM     22  C   UNL d   1      45.170  51.761  57.426  0.00  0.00     0.022 C 
ATOM     23  C   UNL d   1      43.845  51.062  57.113  0.00  0.00     0.005 C 
ATOM     24  C   UNL d   1      45.923  51.035  58.544  0.00  0.00     0.005 C 
ENDBRANCH  15  22
TORSDOF 3

ENDMDL
MODEL 4
REMARK VINA RESULT:    -7.471     19.585     22.442
REMARK INTER + INTRA:          -8.845
REMARK INTER:                  -8.565
REMARK INTRA:                  -0.280
REMARK UNBOUND:                -0.282
REMARK  3 active torsions:
REMARK  status: ('A' for Active; 'I' for Inactive)
REMARK    1  A    between atoms: N_1  and  C_10 
REMARK    2  A    between atoms: C_4  and  C_10 
REMARK    3  A    between atoms: C_17  and  C_19 
ROOT
ATOM      1  C   UNL d   1      58.465  32.520  49.744  0.00  0.00     0.006 C 
ATOM      2  C   UNL d   1      59.025  33.304  48.480  0.00  0.00     0.019 C 
ATOM      3  C   UNL d   1      59.485  31.500  50.431  0.00  0.00     0.029 C 
ATOM      4  C   UNL d   1      60.575  33.348  48.519  0.00  0.00     0.004 C 
ATOM      5  C   UNL d   1      60.464  30.933  49.378  0.00  0.00     0.002 C 
ATOM      6  C   UNL d   1      57.798  33.437  50.786  0.00  0.00     0.005 C 
ATOM      7  C   UNL d   1      61.258  31.991  48.628  0.00  0.00     0.000 C 
ATOM      8  C   UNL d   1      58.473  34.739  48.321  0.00  0.00    -0.027 A 
ATOM      9  C   UNL d   1      56.789  34.390  50.178  0.00  0.00     0.026 C 
ATOM     10  C   UNL d   1      58.565  32.548  47.199  0.00  0.00     0.004 C 
ATOM     11  C   UNL d   1      58.662  30.297  50.968  0.00  0.00     0.002 C 
ATOM     12  C   UNL d   1      57.426  35.234  49.116  0.00  0.00    -0.026 A 
ATOM     13  C   UNL d   1      58.971  35.582  47.307  0.00  0.00    -0.005 A 
ATOM     14  C   UNL d   1      56.903  36.521  48.884  0.00  0.00    -0.009 A 
ATOM     15  C   UNL d   1      57.408  37.347  47.872  0.00  0.00    -0.023 A 
ATOM     16  C   UNL d   1      58.456  36.862  47.093  0.00  0.00    -0.005 A 
ENDROOT
BRANCH   3  17
ATOM     17  C   UNL d   1      60.258  32.146  51.632  0.00  0.00     0.205 C 
BRANCH  17  18
ATOM     18  N   UNL d   1      60.076  31.515  52.937  0.00  0.00    -0.064 N 
ATOM     19  H   UNL d   1      60.136  32.224  53.669  0.00  0.00     0.275 HD
ATOM     20  H   UNL d   1      60.804  30.815  53.082  0.00  0.00     0.275 HD
ATOM     21  H   UNL d   1      59.160  31.067  52.974  0.00  0.00     0.275 HD
ENDBRANCH  17  18
ENDBRANCH   3  17
BRANCH  15  22
ATOM     22  C   UNL d   1      56.794  38.709  47.617  0.00  0.00     0.022 C 
ATOM     23  C   UNL d   1      57.573  39.498  46.563  0.00  0.00     0.005 C 
ATOM     24  C   UNL d   1      55.321  38.569  47.220  0.00  0.00     0.005 C 
ENDBRANCH  15  22
TORSDOF 3

ENDMDL
MODEL 5
REMARK VINA RESULT:    -7.343      4.926      6.086
REMARK INTER + INTRA:          -8.698
REMARK INTER:                  -8.428
REMARK INTRA:                  -0.270
REMARK UNBOUND:                -0.282
REMARK  3 active torsions:
REMARK  status: ('A' for Active; 'I' for Inactive)
REMARK    1  A    between atoms: N_1  and  C_10 
REMARK    2  A    between atoms: C_4  and  C_10 
REMARK    3  A    between atoms: C_17  and  C_19 
ROOT
ATOM      1  C   UNL d   1      49.777  51.902  49.523  0.00  0.00     0.006 C 
ATOM      2  C   UNL d   1      50.647  52.773  50.527  0.00  0.00     0.019 C 
ATOM      3  C   UNL d   1      50.371  50.462  49.165  0.00  0.00     0.029 C 
ATOM      4  C   UNL d   1      51.566  51.857  51.375  0.00  0.00     0.004 C 
ATOM      5  C   UNL d   1      51.915  50.490  49.232  0.00  0.00     0.002 C 
ATOM      6  C   UNL d   1      48.291  51.815  49.917  0.00  0.00     0.005 C 
ATOM      7  C   UNL d   1      52.475  50.933  50.575  0.00  0.00     0.000 C 
ATOM      8  C   UNL d   1      49.820  53.683  51.465  0.00  0.00    -0.027 A 
ATOM      9  C   UNL d   1      47.677  53.167  50.220  0.00  0.00     0.026 C 
ATOM     10  C   UNL d   1      51.525  53.747  49.687  0.00  0.00     0.004 C 
ATOM     11  C   UNL d   1      49.995  50.146  47.691  0.00  0.00     0.002 C 
ATOM     12  C   UNL d   1      48.436  53.863  51.310  0.00  0.00    -0.026 A 
ATOM     13  C   UNL d   1      50.461  54.425  52.478  0.00  0.00    -0.005 A 
ATOM     14  C   UNL d   1      47.738  54.762  52.139  0.00  0.00    -0.009 A 
ATOM     15  C   UNL d   1      48.388  55.492  53.141  0.00  0.00    -0.023 A 
ATOM     16  C   UNL d   1      49.758  55.303  53.305  0.00  0.00    -0.005 A 
ENDROOT
BRANCH   3  17
ATOM     17  C   UNL d   1      49.786  49.331  50.078  0.00  0.00     0.205 C 
BRANCH  17  18
ATOM     18  N   UNL d   1      49.948  47.960  49.599  0.00  0.00    -0.064 N 
ATOM     19  H   UNL d   1      49.066  47.456  49.704  0.00  0.00     0.275 HD
ATOM     20  H   UNL d   1      50.673  47.492  50.144  0.00  0.00     0.275 HD
ATOM     21  H   UNL d   1      50.217  47.972  48.615  0.00  0.00     0.275 HD
ENDBRANCH  17  18
ENDBRANCH   3  17
BRANCH  15  22
ATOM     22  C   UNL d   1      47.617  56.487  53.987  0.00  0.00     0.022 C 
ATOM     23  C   UNL d   1      47.699  56.151  55.478  0.00  0.00     0.005 C 
ATOM     24  C   UNL d   1      48.104  57.913  53.718  0.00  0.00     0.005 C 
ENDBRANCH  15  22
TORSDOF 3

ENDMDL
MODEL 6
REMARK VINA RESULT:    -7.303     67.011     69.263
REMARK INTER + INTRA:          -8.652
REMARK INTER:                  -8.354
REMARK INTRA:                  -0.298
REMARK UNBOUND:                -0.282
REMARK  3 active torsions:
REMARK  status: ('A' for Active; 'I' for Inactive)
REMARK    1  A    between atoms: N_1  and  C_10 
REMARK    2  A    between atoms: C_4  and  C_10 
REMARK    3  A    between atoms: C_17  and  C_19 
ROOT
ATOM      1  C   UNL d   1      42.549  55.814 124.873  0.00  0.00     0.006 C 
ATOM      2  C   UNL d   1      42.256  55.259 123.414  0.00  0.00     0.019 C 
ATOM      3  C   UNL d   1      43.808  56.790 125.001  0.00  0.00     0.029 C 
ATOM      4  C   UNL d   1      42.877  56.197 122.347  0.00  0.00     0.004 C 
ATOM      5  C   UNL d   1      44.874  56.427 123.942  0.00  0.00     0.002 C 
ATOM      6  C   UNL d   1      41.306  56.406 125.564  0.00  0.00     0.005 C 
ATOM      7  C   UNL d   1      44.369  56.461 122.508  0.00  0.00     0.000 C 
ATOM      8  C   UNL d   1      40.757  55.044 123.101  0.00  0.00    -0.027 A 
ATOM      9  C   UNL d   1      40.101  55.490 125.504  0.00  0.00     0.026 C 
ATOM     10  C   UNL d   1      42.902  53.846 123.295  0.00  0.00     0.004 C 
ATOM     11  C   UNL d   1      44.459  56.545 126.390  0.00  0.00     0.002 C 
ATOM     12  C   UNL d   1      39.761  55.150 124.084  0.00  0.00    -0.026 A 
ATOM     13  C   UNL d   1      40.351  54.661 121.806  0.00  0.00    -0.005 A 
ATOM     14  C   UNL d   1      38.416  54.870 123.769  0.00  0.00    -0.009 A 
ATOM     15  C   UNL d   1      38.029  54.490 122.479  0.00  0.00    -0.023 A 
ATOM     16  C   UNL d   1      39.015  54.399 121.499  0.00  0.00    -0.005 A 
ENDROOT
BRANCH   3  17
ATOM     17  C   UNL d   1      43.405  58.301 124.902  0.00  0.00     0.205 C 
BRANCH  17  18
ATOM     18  N   UNL d   1      44.503  59.266 124.882  0.00  0.00    -0.064 N 
ATOM     19  H   UNL d   1      45.129  59.084 125.667  0.00  0.00     0.275 HD
ATOM     20  H   UNL d   1      44.127  60.211 124.960  0.00  0.00     0.275 HD
ATOM     21  H   UNL d   1      45.020  59.176 124.008  0.00  0.00     0.275 HD
ENDBRANCH  17  18
ENDBRANCH   3  17
BRANCH  15  22
ATOM     22  C   UNL d   1      36.582  54.150 122.182  0.00  0.00     0.022 C 
ATOM     23  C   UNL d   1      36.403  53.608 120.763  0.00  0.00     0.005 C 
ATOM     24  C   UNL d   1      36.037  53.165 123.220  0.00  0.00     0.005 C 
ENDBRANCH  15  22
TORSDOF 3

ENDMDL
MODEL 7
REMARK VINA RESULT:    -7.216     43.478     45.374
REMARK INTER + INTRA:          -8.553
REMARK INTER:                  -8.283
REMARK INTRA:                  -0.270
REMARK UNBOUND:                -0.282
REMARK  3 active torsions:
REMARK  status: ('A' for Active; 'I' for Inactive)
REMARK    1  A    between atoms: N_1  and  C_10 
REMARK    2  A    between atoms: C_4  and  C_10 
REMARK    3  A    between atoms: C_17  and  C_19 
ROOT
ATOM      1  C   UNL d   1      42.891  37.619  98.588  0.00  0.00     0.006 C 
ATOM      2  C   UNL d   1      41.430  37.222  98.106  0.00  0.00     0.019 C 
ATOM      3  C   UNL d   1      44.062  36.639  98.118  0.00  0.00     0.029 C 
ATOM      4  C   UNL d   1      41.506  36.324  96.844  0.00  0.00     0.004 C 
ATOM      5  C   UNL d   1      43.523  35.199  97.962  0.00  0.00     0.002 C 
ATOM      6  C   UNL d   1      43.246  39.092  98.315  0.00  0.00     0.005 C 
ATOM      7  C   UNL d   1      42.357  35.069  96.994  0.00  0.00     0.000 C 
ATOM      8  C   UNL d   1      40.500  38.426  97.826  0.00  0.00    -0.027 A 
ATOM      9  C   UNL d   1      42.179  40.058  98.788  0.00  0.00     0.026 C 
ATOM     10  C   UNL d   1      40.738  36.434  99.257  0.00  0.00     0.004 C 
ATOM     11  C   UNL d   1      45.126  36.595  99.250  0.00  0.00     0.002 C 
ATOM     12  C   UNL d   1      40.858  39.744  98.152  0.00  0.00    -0.026 A 
ATOM     13  C   UNL d   1      39.214  38.218  97.287  0.00  0.00    -0.005 A 
ATOM     14  C   UNL d   1      39.948  40.800  97.949  0.00  0.00    -0.009 A 
ATOM     15  C   UNL d   1      38.674  40.577  97.413  0.00  0.00    -0.023 A 
ATOM     16  C   UNL d   1      38.324  39.272  97.076  0.00  0.00    -0.005 A 
ENDROOT
BRANCH   3  17
ATOM     17  C   UNL d   1      44.759  37.128  96.803  0.00  0.00     0.205 C 
BRANCH  17  18
ATOM     18  N   UNL d   1      46.151  36.724  96.616  0.00  0.00    -0.064 N 
ATOM     19  H   UNL d   1      46.631  36.732  97.516  0.00  0.00     0.275 HD
ATOM     20  H   UNL d   1      46.612  37.375  95.980  0.00  0.00     0.275 HD
ATOM     21  H   UNL d   1      46.183  35.784  96.223  0.00  0.00     0.275 HD
ENDBRANCH  17  18
ENDBRANCH   3  17
BRANCH  15  22
ATOM     22  C   UNL d   1      37.700  41.727  97.250  0.00  0.00     0.022 C 
ATOM     23  C   UNL d   1      36.890  41.609  95.958  0.00  0.00     0.005 C 
ATOM     24  C   UNL d   1      36.778  41.829  98.469  0.00  0.00     0.005 C 
ENDBRANCH  15  22
TORSDOF 3

ENDMDL
MODEL 8
REMARK VINA RESULT:    -7.106      2.543      4.324
REMARK INTER + INTRA:          -8.427
REMARK INTER:                  -8.126
REMARK INTRA:                  -0.301
REMARK UNBOUND:                -0.282
REMARK  3 active torsions:
REMARK  status: ('A' for Active; 'I' for Inactive)
REMARK    1  A    between atoms: N_1  and  C_10 
REMARK    2  A    between atoms: C_4  and  C_10 
REMARK    3  A    between atoms: C_17  and  C_19 
ROOT
ATOM      1  C   UNL d   1      48.680  51.129  49.355  0.00  0.00     0.006 C 
ATOM      2  C   UNL d   1      49.337  51.546  50.741  0.00  0.00     0.019 C 
ATOM      3  C   UNL d   1      49.684  50.519  48.272  0.00  0.00     0.029 C 
ATOM      4  C   UNL d   1      50.661  50.771  50.962  0.00  0.00     0.004 C 
ATOM      5  C   UNL d   1      51.097  51.116  48.458  0.00  0.00     0.002 C 
ATOM      6  C   UNL d   1      47.423  50.254  49.512  0.00  0.00     0.005 C 
ATOM      7  C   UNL d   1      51.686  50.909  49.845  0.00  0.00     0.000 C 
ATOM      8  C   UNL d   1      48.415  51.354  51.968  0.00  0.00    -0.027 A 
ATOM      9  C   UNL d   1      46.424  50.823  50.499  0.00  0.00     0.026 C 
ATOM     10  C   UNL d   1      49.636  53.074  50.693  0.00  0.00     0.004 C 
ATOM     11  C   UNL d   1      49.194  50.965  46.867  0.00  0.00     0.002 C 
ATOM     12  C   UNL d   1      47.057  51.021  51.843  0.00  0.00    -0.026 A 
ATOM     13  C   UNL d   1      48.911  51.581  53.268  0.00  0.00    -0.005 A 
ATOM     14  C   UNL d   1      46.238  50.932  52.986  0.00  0.00    -0.009 A 
ATOM     15  C   UNL d   1      46.745  51.161  54.271  0.00  0.00    -0.023 A 
ATOM     16  C   UNL d   1      48.095  51.477  54.396  0.00  0.00    -0.005 A 
ENDROOT
BRANCH   3  17
ATOM     17  C   UNL d   1      49.723  48.953  48.309  0.00  0.00     0.205 C 
BRANCH  17  18
ATOM     18  N   UNL d   1      50.772  48.310  47.520  0.00  0.00    -0.064 N 
ATOM     19  H   UNL d   1      50.372  47.534  46.991  0.00  0.00     0.275 HD
ATOM     20  H   UNL d   1      51.499  47.958  48.142  0.00  0.00     0.275 HD
ATOM     21  H   UNL d   1      51.176  48.988  46.873  0.00  0.00     0.275 HD
ENDBRANCH  17  18
ENDBRANCH   3  17
BRANCH  15  22
ATOM     22  C   UNL d   1      45.828  51.104  55.477  0.00  0.00     0.022 C 
ATOM     23  C   UNL d   1      46.088  52.258  56.447  0.00  0.00     0.005 C 
ATOM     24  C   UNL d   1      44.362  51.075  55.038  0.00  0.00     0.005 C 
ENDBRANCH  15  22
TORSDOF 3

ENDMDL
MODEL 9
REMARK VINA RESULT:    -7.076     51.043     54.399
REMARK INTER + INTRA:          -8.392
REMARK INTER:                  -8.110
REMARK INTRA:                  -0.282
REMARK UNBOUND:                -0.282
REMARK  3 active torsions:
REMARK  status: ('A' for Active; 'I' for Inactive)
REMARK    1  A    between atoms: N_1  and  C_10 
REMARK    2  A    between atoms: C_4  and  C_10 
REMARK    3  A    between atoms: C_17  and  C_19 
ROOT
ATOM      1  C   UNL d   1      33.970  44.442 106.421  0.00  0.00     0.006 C 
ATOM      2  C   UNL d   1      35.009  45.381 107.171  0.00  0.00     0.019 C 
ATOM      3  C   UNL d   1      33.689  44.808 104.891  0.00  0.00     0.029 C 
ATOM      4  C   UNL d   1      35.939  46.079 106.146  0.00  0.00     0.004 C 
ATOM      5  C   UNL d   1      33.859  46.327 104.665  0.00  0.00     0.002 C 
ATOM      6  C   UNL d   1      34.265  42.941 106.596  0.00  0.00     0.005 C 
ATOM      7  C   UNL d   1      35.225  46.868 105.057  0.00  0.00     0.000 C 
ATOM      8  C   UNL d   1      35.866  44.662 108.238  0.00  0.00    -0.027 A 
ATOM      9  C   UNL d   1      34.493  42.545 108.040  0.00  0.00     0.026 C 
ATOM     10  C   UNL d   1      34.206  46.461 107.956  0.00  0.00     0.004 C 
ATOM     11  C   UNL d   1      32.201  44.477 104.590  0.00  0.00     0.002 C 
ATOM     12  C   UNL d   1      35.614  43.340 108.639  0.00  0.00    -0.026 A 
ATOM     13  C   UNL d   1      36.902  45.353 108.899  0.00  0.00    -0.005 A 
ATOM     14  C   UNL d   1      36.372  42.751 109.671  0.00  0.00    -0.009 A 
ATOM     15  C   UNL d   1      37.397  43.451 110.318  0.00  0.00    -0.023 A 
ATOM     16  C   UNL d   1      37.658  44.757 109.911  0.00  0.00    -0.005 A 
ENDROOT
BRANCH   3  17
ATOM     17  C   UNL d   1      34.588  43.986 103.905  0.00  0.00     0.205 C 
BRANCH  17  18
ATOM     18  N   UNL d   1      34.536  44.377 102.498  0.00  0.00    -0.064 N 
ATOM     19  H   UNL d   1      33.578  44.628 102.250  0.00  0.00     0.275 HD
ATOM     20  H   UNL d   1      34.845  43.598 101.916  0.00  0.00     0.275 HD
ATOM     21  H   UNL d   1      35.147  45.180 102.345  0.00  0.00     0.275 HD
ENDBRANCH  17  18
ENDBRANCH   3  17
BRANCH  15  22
ATOM     22  C   UNL d   1      38.165  42.807 111.455  0.00  0.00     0.022 C 
ATOM     23  C   UNL d   1      39.666  43.084 111.360  0.00  0.00     0.005 C 
ATOM     24  C   UNL d   1      37.606  43.262 112.807  0.00  0.00     0.005 C 
ENDBRANCH  15  22
TORSDOF 3

ENDMDL
