MODEL 1
REMARK VINA RESULT:    -8.015      0.000      0.000
REMARK INTER + INTRA:          -9.462
REMARK INTER:                  -9.186
REMARK INTRA:                  -0.276
REMARK UNBOUND:                -0.276
REMARK  3 active torsions:
REMARK  status: ('A' for Active; 'I' for Inactive)
REMARK    1  A    between atoms: N_1  and  C_10 
REMARK    2  A    between atoms: C_4  and  C_10 
REMARK    3  A    between atoms: C_17  and  C_19 
ROOT
ATOM      1  C   UNL d   1      49.315  51.050  50.392  0.00  0.00     0.006 C 
ATOM      2  C   UNL d   1      48.013  51.456  51.207  0.00  0.00     0.019 C 
ATOM      3  C   UNL d   1      49.056  50.284  49.014  0.00  0.00     0.029 C 
ATOM      4  C   UNL d   1      46.790  51.539  50.258  0.00  0.00     0.004 C 
ATOM      5  C   UNL d   1      47.751  49.462  49.098  0.00  0.00     0.002 C 
ATOM      6  C   UNL d   1      50.312  52.211  50.213  0.00  0.00     0.005 C 
ATOM      7  C   UNL d   1      46.517  50.280  49.444  0.00  0.00     0.000 C 
ATOM      8  C   UNL d   1      48.141  52.779  51.999  0.00  0.00    -0.027 A 
ATOM      9  C   UNL d   1      50.619  52.935  51.507  0.00  0.00     0.026 C 
ATOM     10  C   UNL d   1      47.756  50.362  52.284  0.00  0.00     0.004 C 
ATOM     11  C   UNL d   1      50.212  49.266  48.813  0.00  0.00     0.002 C 
ATOM     12  C   UNL d   1      49.362  53.458  52.136  0.00  0.00    -0.026 A 
ATOM     13  C   UNL d   1      47.024  53.311  52.674  0.00  0.00    -0.005 A 
ATOM     14  C   UNL d   1      49.447  54.618  52.931  0.00  0.00    -0.009 A 
ATOM     15  C   UNL d   1      48.328  55.134  53.596  0.00  0.00    -0.023 A 
ATOM     16  C   UNL d   1      47.113  54.469  53.449  0.00  0.00    -0.005 A 
ENDROOT
BRANCH   3  17
ATOM     17  C   UNL d   1      49.034  51.256  47.785  0.00  0.00     0.205 C 
BRANCH  17  18
ATOM     18  N   UNL d   1      49.805  50.842  46.615  0.00  0.00    -0.064 N 
ATOM     19  H   UNL d   1      50.299  49.973  46.823  0.00  0.00     0.275 HD
ATOM     20  H   UNL d   1      50.481  51.568  46.377  0.00  0.00     0.275 HD
ATOM     21  H   UNL d   1      49.174  50.692  45.827  0.00  0.00     0.275 HD
ENDBRANCH  17  18
ENDBRANCH   3  17
BRANCH  15  22
ATOM     22  C   UNL d   1      48.461  56.357  54.481  0.00  0.00     0.022 C 
ATOM     23  C   UNL d   1      49.139  57.519  53.752  0.00  0.00     0.005 C 
ATOM     24  C   UNL d   1      47.093  56.776  55.029  0.00  0.00     0.005 C 
ENDBRANCH  15  22
TORSDOF 3

ENDMDL
MODEL 2
REMARK VINA RESULT:    -7.839     20.833     24.239
REMARK INTER + INTRA:          -9.260
REMARK INTER:                  -8.992
REMARK INTRA:                  -0.268
REMARK UNBOUND:                -0.276
REMARK  3 active torsions:
REMARK  status: ('A' for Active; 'I' for Inactive)
REMARK    1  A    between atoms: N_1  and  C_10 
REMARK    2  A    between atoms: C_4  and  C_10 
REMARK    3  A    between atoms: C_17  and  C_19 
ROOT
ATOM      1  C   UNL d   1      43.846  53.461  75.478  0.00  0.00     0.006 C 
ATOM      2  C   UNL d   1      43.292  53.131  74.026  0.00  0.00     0.019 C 
ATOM      3  C   UNL d   1      42.772  54.038  76.512  0.00  0.00     0.029 C 
ATOM      4  C   UNL d   1      41.760  52.899  74.076  0.00  0.00     0.004 C 
ATOM      5  C   UNL d   1      41.681  54.833  75.759  0.00  0.00     0.002 C 
ATOM      6  C   UNL d   1      44.661  52.311  76.098  0.00  0.00     0.005 C 
ATOM      7  C   UNL d   1      40.953  54.036  74.688  0.00  0.00     0.000 C 
ATOM      8  C   UNL d   1      43.974  51.924  73.341  0.00  0.00    -0.027 A 
ATOM      9  C   UNL d   1      45.722  51.765  75.164  0.00  0.00     0.026 C 
ATOM     10  C   UNL d   1      43.599  54.348  73.104  0.00  0.00     0.004 C 
ATOM     11  C   UNL d   1      43.502  55.050  77.438  0.00  0.00     0.002 C 
ATOM     12  C   UNL d   1      45.110  51.298  73.878  0.00  0.00    -0.026 A 
ATOM     13  C   UNL d   1      43.503  51.456  72.097  0.00  0.00    -0.005 A 
ATOM     14  C   UNL d   1      45.743  50.251  73.180  0.00  0.00    -0.009 A 
ATOM     15  C   UNL d   1      45.264  49.797  71.945  0.00  0.00    -0.023 A 
ATOM     16  C   UNL d   1      44.128  50.409  71.418  0.00  0.00    -0.005 A 
ENDROOT
BRANCH   3  17
ATOM     17  C   UNL d   1      42.140  52.917  77.405  0.00  0.00     0.205 C 
BRANCH  17  18
ATOM     18  N   UNL d   1      42.373  53.024  78.844  0.00  0.00    -0.064 N 
ATOM     19  H   UNL d   1      41.800  52.335  79.333  0.00  0.00     0.275 HD
ATOM     20  H   UNL d   1      42.123  53.960  79.161  0.00  0.00     0.275 HD
ATOM     21  H   UNL d   1      43.358  52.848  79.043  0.00  0.00     0.275 HD
ENDBRANCH  17  18
ENDBRANCH   3  17
BRANCH  15  22
ATOM     22  C   UNL d   1      45.994  48.701  71.196  0.00  0.00     0.022 C 
ATOM     23  C   UNL d   1      45.507  47.309  71.604  0.00  0.00     0.005 C 
ATOM     24  C   UNL d   1      45.868  48.906  69.684  0.00  0.00     0.005 C 
ENDBRANCH  15  22
TORSDOF 3

ENDMDL
MODEL 3
REMARK VINA RESULT:    -7.502     17.618     21.477
REMARK INTER + INTRA:          -8.874
REMARK INTER:                  -8.600
REMARK INTRA:                  -0.273
REMARK UNBOUND:                -0.276
REMARK  3 active torsions:
REMARK  status: ('A' for Active; 'I' for Inactive)
REMARK    1  A    between atoms: N_1  and  C_10 
REMARK    2  A    between atoms: C_4  and  C_10 
REMARK    3  A    between atoms: C_17  and  C_19 
ROOT
ATOM      1  C   UNL d   1      58.526  32.470  49.821  0.00  0.00     0.006 C 
ATOM      2  C   UNL d   1      59.075  33.244  48.547  0.00  0.00     0.019 C 
ATOM      3  C   UNL d   1      59.562  31.479  50.526  0.00  0.00     0.029 C 
ATOM      4  C   UNL d   1      60.623  33.316  48.588  0.00  0.00     0.004 C 
ATOM      5  C   UNL d   1      60.553  30.913  49.484  0.00  0.00     0.002 C 
ATOM      6  C   UNL d   1      57.839  33.391  50.847  0.00  0.00     0.005 C 
ATOM      7  C   UNL d   1      61.330  31.974  48.720  0.00  0.00     0.000 C 
ATOM      8  C   UNL d   1      58.497  34.667  48.365  0.00  0.00    -0.027 A 
ATOM      9  C   UNL d   1      56.815  34.316  50.223  0.00  0.00     0.026 C 
ATOM     10  C   UNL d   1      58.631  32.460  47.276  0.00  0.00     0.004 C 
ATOM     11  C   UNL d   1      58.759  30.270  51.080  0.00  0.00     0.002 C 
ATOM     12  C   UNL d   1      57.440  35.155  49.149  0.00  0.00    -0.026 A 
ATOM     13  C   UNL d   1      58.982  35.503  47.338  0.00  0.00    -0.005 A 
ATOM     14  C   UNL d   1      56.895  36.429  48.896  0.00  0.00    -0.009 A 
ATOM     15  C   UNL d   1      57.387  37.248  47.873  0.00  0.00    -0.023 A 
ATOM     16  C   UNL d   1      58.446  36.770  47.104  0.00  0.00    -0.005 A 
ENDROOT
BRANCH   3  17
ATOM     17  C   UNL d   1      60.320  32.157  51.718  0.00  0.00     0.205 C 
BRANCH  17  18
ATOM     18  N   UNL d   1      60.082  31.592  53.045  0.00  0.00    -0.064 N 
ATOM     19  H   UNL d   1      59.158  31.160  53.070  0.00  0.00     0.275 HD
ATOM     20  H   UNL d   1      60.130  32.334  53.744  0.00  0.00     0.275 HD
ATOM     21  H   UNL d   1      60.792  30.888  53.247  0.00  0.00     0.275 HD
ENDBRANCH  17  18
ENDBRANCH   3  17
BRANCH  15  22
ATOM     22  C   UNL d   1      56.750  38.595  47.595  0.00  0.00     0.022 C 
ATOM     23  C   UNL d   1      57.519  39.382  46.533  0.00  0.00     0.005 C 
ATOM     24  C   UNL d   1      55.281  38.423  47.196  0.00  0.00     0.005 C 
ENDBRANCH  15  22
TORSDOF 3

ENDMDL
MODEL 4
REMARK VINA RESULT:    -7.255     18.085     20.645
REMARK INTER + INTRA:          -8.591
REMARK INTER:                  -8.319
REMARK INTRA:                  -0.272
REMARK UNBOUND:                -0.276
REMARK  3 active torsions:
REMARK  status: ('A' for Active; 'I' for Inactive)
REMARK    1  A    between atoms: N_1  and  C_10 
REMARK    2  A    between atoms: C_4  and  C_10 
REMARK    3  A    between atoms: C_17  and  C_19 
ROOT
ATOM      1  C   UNL d   1      59.125  34.886  47.664  0.00  0.00     0.006 C 
ATOM      2  C   UNL d   1      58.266  33.789  48.429  0.00  0.00     0.019 C 
ATOM      3  C   UNL d   1      60.057  34.336  46.489  0.00  0.00     0.029 C 
ATOM      4  C   UNL d   1      58.076  32.536  47.536  0.00  0.00     0.004 C 
ATOM      5  C   UNL d   1      60.507  32.890  46.797  0.00  0.00     0.002 C 
ATOM      6  C   UNL d   1      58.297  36.100  47.205  0.00  0.00     0.005 C 
ATOM      7  C   UNL d   1      59.364  31.912  47.015  0.00  0.00     0.000 C 
ATOM      8  C   UNL d   1      56.887  34.286  48.921  0.00  0.00    -0.027 A 
ATOM      9  C   UNL d   1      57.431  36.679  48.306  0.00  0.00     0.026 C 
ATOM     10  C   UNL d   1      59.037  33.387  49.722  0.00  0.00     0.004 C 
ATOM     11  C   UNL d   1      61.344  35.206  46.458  0.00  0.00     0.002 C 
ATOM     12  C   UNL d   1      56.509  35.637  48.862  0.00  0.00    -0.026 A 
ATOM     13  C   UNL d   1      55.980  33.385  49.516  0.00  0.00    -0.005 A 
ATOM     14  C   UNL d   1      55.273  36.055  49.393  0.00  0.00    -0.009 A 
ATOM     15  C   UNL d   1      54.383  35.148  49.981  0.00  0.00    -0.023 A 
ATOM     16  C   UNL d   1      54.751  33.805  50.026  0.00  0.00    -0.005 A 
ENDROOT
BRANCH   3  17
ATOM     17  C   UNL d   1      59.365  34.426  45.086  0.00  0.00     0.205 C 
BRANCH  17  18
ATOM     18  N   UNL d   1      60.003  33.688  43.998  0.00  0.00    -0.064 N 
ATOM     19  H   UNL d   1      59.349  33.595  43.220  0.00  0.00     0.275 HD
ATOM     20  H   UNL d   1      60.273  32.761  44.327  0.00  0.00     0.275 HD
ATOM     21  H   UNL d   1      60.833  34.193  43.685  0.00  0.00     0.275 HD
ENDBRANCH  17  18
ENDBRANCH   3  17
BRANCH  15  22
ATOM     22  C   UNL d   1      53.081  35.635  50.585  0.00  0.00     0.022 C 
ATOM     23  C   UNL d   1      51.883  34.825  50.085  0.00  0.00     0.005 C 
ATOM     24  C   UNL d   1      53.157  35.618  52.114  0.00  0.00     0.005 C 
ENDBRANCH  15  22
TORSDOF 3

ENDMDL
MODEL 5
REMARK VINA RESULT:    -7.192     22.488     25.937
REMARK INTER + INTRA:          -8.519
REMARK INTER:                  -8.244
REMARK INTRA:                  -0.274
REMARK UNBOUND:                -0.276
REMARK  3 active torsions:
REMARK  status: ('A' for Active; 'I' for Inactive)
REMARK    1  A    between atoms: N_1  and  C_10 
REMARK    2  A    between atoms: C_4  and  C_10 
REMARK    3  A    between atoms: C_17  and  C_19 
ROOT
ATOM      1  C   UNL d   1      42.418  53.537  74.827  0.00  0.00     0.006 C 
ATOM      2  C   UNL d   1      42.736  55.074  75.077  0.00  0.00     0.019 C 
ATOM      3  C   UNL d   1      43.208  52.858  73.615  0.00  0.00     0.029 C 
ATOM      4  C   UNL d   1      44.122  55.439  74.487  0.00  0.00     0.004 C 
ATOM      5  C   UNL d   1      43.513  53.907  72.522  0.00  0.00     0.002 C 
ATOM      6  C   UNL d   1      42.500  52.679  76.103  0.00  0.00     0.005 C 
ATOM      7  C   UNL d   1      44.304  55.110  73.012  0.00  0.00     0.000 C 
ATOM      8  C   UNL d   1      42.677  55.504  76.561  0.00  0.00    -0.027 A 
ATOM      9  C   UNL d   1      41.725  53.267  77.264  0.00  0.00     0.026 C 
ATOM     10  C   UNL d   1      41.636  55.917  74.367  0.00  0.00     0.004 C 
ATOM     11  C   UNL d   1      42.269  51.802  72.969  0.00  0.00     0.002 C 
ATOM     12  C   UNL d   1      42.200  54.655  77.573  0.00  0.00    -0.026 A 
ATOM     13  C   UNL d   1      43.046  56.813  76.934  0.00  0.00    -0.005 A 
ATOM     14  C   UNL d   1      42.093  55.117  78.899  0.00  0.00    -0.009 A 
ATOM     15  C   UNL d   1      42.463  56.421  79.254  0.00  0.00    -0.023 A 
ATOM     16  C   UNL d   1      42.950  57.259  78.254  0.00  0.00    -0.005 A 
ENDROOT
BRANCH   3  17
ATOM     17  C   UNL d   1      44.517  52.135  74.085  0.00  0.00     0.205 C 
BRANCH  17  18
ATOM     18  N   UNL d   1      44.672  50.742  73.674  0.00  0.00    -0.064 N 
ATOM     19  H   UNL d   1      44.147  50.580  72.814  0.00  0.00     0.275 HD
ATOM     20  H   UNL d   1      44.319  50.128  74.408  0.00  0.00     0.275 HD
ATOM     21  H   UNL d   1      45.660  50.543  73.510  0.00  0.00     0.275 HD
ENDBRANCH  17  18
ENDBRANCH   3  17
BRANCH  15  22
ATOM     22  C   UNL d   1      42.292  56.903  80.681  0.00  0.00     0.022 C 
ATOM     23  C   UNL d   1      40.828  57.203  81.010  0.00  0.00     0.005 C 
ATOM     24  C   UNL d   1      42.881  55.889  81.666  0.00  0.00     0.005 C 
ENDBRANCH  15  22
TORSDOF 3

ENDMDL
MODEL 6
REMARK VINA RESULT:    -7.171     47.501     49.298
REMARK INTER + INTRA:          -8.495
REMARK INTER:                  -8.228
REMARK INTRA:                  -0.267
REMARK UNBOUND:                -0.276
REMARK  3 active torsions:
REMARK  status: ('A' for Active; 'I' for Inactive)
REMARK    1  A    between atoms: N_1  and  C_10 
REMARK    2  A    between atoms: C_4  and  C_10 
REMARK    3  A    between atoms: C_17  and  C_19 
ROOT
ATOM      1  C   UNL d   1      42.832  37.701  98.609  0.00  0.00     0.006 C 
ATOM      2  C   UNL d   1      41.359  37.298  98.169  0.00  0.00     0.019 C 
ATOM      3  C   UNL d   1      43.989  36.703  98.143  0.00  0.00     0.029 C 
ATOM      4  C   UNL d   1      41.406  36.365  96.931  0.00  0.00     0.004 C 
ATOM      5  C   UNL d   1      43.441  35.262  98.037  0.00  0.00     0.002 C 
ATOM      6  C   UNL d   1      43.187  39.165  98.289  0.00  0.00     0.005 C 
ATOM      7  C   UNL d   1      42.255  35.112  97.098  0.00  0.00     0.000 C 
ATOM      8  C   UNL d   1      40.429  38.498  97.875  0.00  0.00    -0.027 A 
ATOM      9  C   UNL d   1      42.133  40.148  98.757  0.00  0.00     0.026 C 
ATOM     10  C   UNL d   1      40.688  36.545  99.355  0.00  0.00     0.004 C 
ATOM     11  C   UNL d   1      45.076  36.686  99.253  0.00  0.00     0.002 C 
ATOM     12  C   UNL d   1      40.798  39.822  98.157  0.00  0.00    -0.026 A 
ATOM     13  C   UNL d   1      39.131  38.280  97.368  0.00  0.00    -0.005 A 
ATOM     14  C   UNL d   1      39.888  40.876  97.945  0.00  0.00    -0.009 A 
ATOM     15  C   UNL d   1      38.602  40.645  97.441  0.00  0.00    -0.023 A 
ATOM     16  C   UNL d   1      38.240  39.332  97.147  0.00  0.00    -0.005 A 
ENDROOT
BRANCH   3  17
ATOM     17  C   UNL d   1      44.660  37.153  96.800  0.00  0.00     0.205 C 
BRANCH  17  18
ATOM     18  N   UNL d   1      46.057  36.769  96.611  0.00  0.00    -0.064 N 
ATOM     19  H   UNL d   1      46.251  36.669  95.614  0.00  0.00     0.275 HD
ATOM     20  H   UNL d   1      46.233  35.881  97.082  0.00  0.00     0.275 HD
ATOM     21  H   UNL d   1      46.665  37.488  97.004  0.00  0.00     0.275 HD
ENDBRANCH  17  18
ENDBRANCH   3  17
BRANCH  15  22
ATOM     22  C   UNL d   1      37.630  41.794  97.267  0.00  0.00     0.022 C 
ATOM     23  C   UNL d   1      36.965  41.775  95.888  0.00  0.00     0.005 C 
ATOM     24  C   UNL d   1      36.581  41.785  98.382  0.00  0.00     0.005 C 
ENDBRANCH  15  22
TORSDOF 3

ENDMDL
MODEL 7
REMARK VINA RESULT:    -7.085     55.645     58.496
REMARK INTER + INTRA:          -8.396
REMARK INTER:                  -8.114
REMARK INTRA:                  -0.282
REMARK UNBOUND:                -0.276
REMARK  3 active torsions:
REMARK  status: ('A' for Active; 'I' for Inactive)
REMARK    1  A    between atoms: N_1  and  C_10 
REMARK    2  A    between atoms: C_4  and  C_10 
REMARK    3  A    between atoms: C_17  and  C_19 
ROOT
ATOM      1  C   UNL d   1      33.976  44.482 106.435  0.00  0.00     0.006 C 
ATOM      2  C   UNL d   1      35.032  45.418 107.167  0.00  0.00     0.019 C 
ATOM      3  C   UNL d   1      33.665  44.852 104.912  0.00  0.00     0.029 C 
ATOM      4  C   UNL d   1      35.943  46.115 106.124  0.00  0.00     0.004 C 
ATOM      5  C   UNL d   1      33.835  46.371 104.685  0.00  0.00     0.002 C 
ATOM      6  C   UNL d   1      34.270  42.980 106.602  0.00  0.00     0.005 C 
ATOM      7  C   UNL d   1      35.210  46.908 105.051  0.00  0.00     0.000 C 
ATOM      8  C   UNL d   1      35.908  44.694 108.216  0.00  0.00    -0.027 A 
ATOM      9  C   UNL d   1      34.525  42.581 108.041  0.00  0.00     0.026 C 
ATOM     10  C   UNL d   1      34.247  46.498 107.968  0.00  0.00     0.004 C 
ATOM     11  C   UNL d   1      32.171  44.525 104.640  0.00  0.00     0.002 C 
ATOM     12  C   UNL d   1      35.660  43.373 108.619  0.00  0.00    -0.026 A 
ATOM     13  C   UNL d   1      36.958  45.382 108.857  0.00  0.00    -0.005 A 
ATOM     14  C   UNL d   1      36.437  42.780 109.634  0.00  0.00    -0.009 A 
ATOM     15  C   UNL d   1      37.477  43.476 110.263  0.00  0.00    -0.023 A 
ATOM     16  C   UNL d   1      37.732  44.783 109.852  0.00  0.00    -0.005 A 
ENDROOT
BRANCH   3  17
ATOM     17  C   UNL d   1      34.543  44.029 103.907  0.00  0.00     0.205 C 
BRANCH  17  18
ATOM     18  N   UNL d   1      34.459  44.418 102.501  0.00  0.00    -0.064 N 
ATOM     19  H   UNL d   1      35.363  44.777 102.193  0.00  0.00     0.275 HD
ATOM     20  H   UNL d   1      33.750  45.144 102.390  0.00  0.00     0.275 HD
ATOM     21  H   UNL d   1      34.206  43.607 101.937  0.00  0.00     0.275 HD
ENDBRANCH  17  18
ENDBRANCH   3  17
BRANCH  15  22
ATOM     22  C   UNL d   1      38.265  42.828 111.383  0.00  0.00     0.022 C 
ATOM     23  C   UNL d   1      39.762  43.124 111.273  0.00  0.00     0.005 C 
ATOM     24  C   UNL d   1      37.717  43.261 112.746  0.00  0.00     0.005 C 
ENDBRANCH  15  22
TORSDOF 3

ENDMDL
MODEL 8
REMARK VINA RESULT:    -7.055     17.979     20.970
REMARK INTER + INTRA:          -8.362
REMARK INTER:                  -8.070
REMARK INTRA:                  -0.292
REMARK UNBOUND:                -0.276
REMARK  3 active torsions:
REMARK  status: ('A' for Active; 'I' for Inactive)
REMARK    1  A    between atoms: N_1  and  C_10 
REMARK    2  A    between atoms: C_4  and  C_10 
REMARK    3  A    between atoms: C_17  and  C_19 
ROOT
ATOM      1  C   UNL d   1      55.487  35.105  49.751  0.00  0.00     0.006 C 
ATOM      2  C   UNL d   1      56.512  35.421  48.579  0.00  0.00     0.019 C 
ATOM      3  C   UNL d   1      53.945  35.090  49.333  0.00  0.00     0.029 C 
ATOM      4  C   UNL d   1      55.875  35.092  47.204  0.00  0.00     0.004 C 
ATOM      5  C   UNL d   1      53.701  36.064  48.158  0.00  0.00     0.002 C 
ATOM      6  C   UNL d   1      55.860  33.855  50.570  0.00  0.00     0.005 C 
ATOM      7  C   UNL d   1      54.546  35.782  46.926  0.00  0.00     0.000 C 
ATOM      8  C   UNL d   1      57.871  34.693  48.705  0.00  0.00    -0.027 A 
ATOM      9  C   UNL d   1      57.305  33.853  51.024  0.00  0.00     0.026 C 
ATOM     10  C   UNL d   1      56.858  36.939  48.636  0.00  0.00     0.004 C 
ATOM     11  C   UNL d   1      53.122  35.629  50.536  0.00  0.00     0.002 C 
ATOM     12  C   UNL d   1      58.232  33.968  49.851  0.00  0.00    -0.026 A 
ATOM     13  C   UNL d   1      58.829  34.798  47.676  0.00  0.00    -0.005 A 
ATOM     14  C   UNL d   1      59.511  33.386  49.953  0.00  0.00    -0.009 A 
ATOM     15  C   UNL d   1      60.452  33.499  48.922  0.00  0.00    -0.023 A 
ATOM     16  C   UNL d   1      60.089  34.206  47.778  0.00  0.00    -0.005 A 
ENDROOT
BRANCH   3  17
ATOM     17  C   UNL d   1      53.433  33.650  48.988  0.00  0.00     0.205 C 
BRANCH  17  18
ATOM     18  N   UNL d   1      52.290  33.165  49.759  0.00  0.00    -0.064 N 
ATOM     19  H   UNL d   1      51.839  32.400  49.255  0.00  0.00     0.275 HD
ATOM     20  H   UNL d   1      51.621  33.924  49.892  0.00  0.00     0.275 HD
ATOM     21  H   UNL d   1      52.609  32.830  50.668  0.00  0.00     0.275 HD
ENDBRANCH  17  18
ENDBRANCH   3  17
BRANCH  15  22
ATOM     22  C   UNL d   1      61.836  32.901  49.080  0.00  0.00     0.022 C 
ATOM     23  C   UNL d   1      62.846  33.542  48.125  0.00  0.00     0.005 C 
ATOM     24  C   UNL d   1      62.307  33.011  50.533  0.00  0.00     0.005 C 
ENDBRANCH  15  22
TORSDOF 3

ENDMDL
MODEL 9
REMARK VINA RESULT:    -6.826     43.221     46.615
REMARK INTER + INTRA:          -8.100
REMARK INTER:                  -7.798
REMARK INTRA:                  -0.302
REMARK UNBOUND:                -0.276
REMARK  3 active torsions:
REMARK  status: ('A' for Active; 'I' for Inactive)
REMARK    1  A    between atoms: N_1  and  C_10 
REMARK    2  A    between atoms: C_4  and  C_10 
REMARK    3  A    between atoms: C_17  and  C_19 
ROOT
ATOM      1  C   UNL d   1      36.625  69.334  91.949  0.00  0.00     0.006 C 
ATOM      2  C   UNL d   1      37.154  68.061  92.738  0.00  0.00     0.019 C 
ATOM      3  C   UNL d   1      36.949  69.359  90.384  0.00  0.00     0.029 C 
ATOM      4  C   UNL d   1      37.363  66.873  91.764  0.00  0.00     0.004 C 
ATOM      5  C   UNL d   1      38.267  68.604  90.100  0.00  0.00     0.002 C 
ATOM      6  C   UNL d   1      35.143  69.651  92.221  0.00  0.00     0.005 C 
ATOM      7  C   UNL d   1      38.276  67.161  90.580  0.00  0.00     0.000 C 
ATOM      8  C   UNL d   1      36.248  67.613  93.909  0.00  0.00    -0.027 A 
ATOM      9  C   UNL d   1      34.804  69.681  93.698  0.00  0.00     0.026 C 
ATOM     10  C   UNL d   1      38.515  68.431  93.397  0.00  0.00     0.004 C 
ATOM     11  C   UNL d   1      37.187  70.839  89.973  0.00  0.00     0.002 C 
ATOM     12  C   UNL d   1      35.157  68.379  94.351  0.00  0.00    -0.026 A 
ATOM     13  C   UNL d   1      36.542  66.433  94.622  0.00  0.00    -0.005 A 
ATOM     14  C   UNL d   1      34.407  67.970  95.471  0.00  0.00    -0.009 A 
ATOM     15  C   UNL d   1      34.712  66.795  96.169  0.00  0.00    -0.023 A 
ATOM     16  C   UNL d   1      35.785  66.027  95.722  0.00  0.00    -0.005 A 
ENDROOT
BRANCH   3  17
ATOM     17  C   UNL d   1      35.772  68.789  89.521  0.00  0.00     0.205 C 
BRANCH  17  18
ATOM     18  N   UNL d   1      36.043  68.601  88.097  0.00  0.00    -0.064 N 
ATOM     19  H   UNL d   1      36.600  67.756  87.965  0.00  0.00     0.275 HD
ATOM     20  H   UNL d   1      36.558  69.406  87.739  0.00  0.00     0.275 HD
ATOM     21  H   UNL d   1      35.161  68.508  87.592  0.00  0.00     0.275 HD
ENDBRANCH  17  18
ENDBRANCH   3  17
BRANCH  15  22
ATOM     22  C   UNL d   1      33.915  66.406  97.398  0.00  0.00     0.022 C 
ATOM     23  C   UNL d   1      34.806  66.269  98.635  0.00  0.00     0.005 C 
ATOM     24  C   UNL d   1      32.782  67.406  97.644  0.00  0.00     0.005 C 
ENDBRANCH  15  22
TORSDOF 3

ENDMDL
